LAMMPS (23 Jun 2022 - Update 1)
OMP_NUM_THREADS environment is not set. Defaulting to 1 thread. (src/comm.cpp:98)
  using 1 OpenMP thread(s) per MPI task
Loaded 1 plugins from C:\Users\HP\AppData\Local\LAMMPS 64-bit 23Jun2022\plugins
# Analytical calculation
# of Born matrix

# Note that because of cubic symmetry and central forces, we have:
# C11, pure axial == positive mean value: 1,2,3
# C44==C23, pure shear == positive mean value, exactly match in pairs: (4,12),(5,8),(6,7)
# C14==C56, shear/axial(normal) == zero mean, exactly match in pairs: (9,21),(14,20),(18,19)
# C15, shear/axial(in-plane) == zero mean: 10,11,13,15,16,17

# adjustable parameters

units			real
dimension		3
processors		* * *
boundary		p p p
atom_style		full
pair_style		lj/cut 10.0
bond_style		harmonic
angle_style 	harmonic
read_data		after_cross_linking_correct.data
Reading data file ...
  orthogonal box = (30.222448 27.307948 30.19145) to (59.884552 56.970052 59.853554)
  1 by 1 by 1 MPI processor grid
  reading atoms ...
  2988 atoms
  reading velocities ...
  2988 velocities
  scanning bonds ...
  4 = max bonds/atom
  scanning angles ...
  6 = max angles/atom
  reading bonds ...
  3044 bonds
  reading angles ...
  5800 angles
Finding 1-2 1-3 1-4 neighbors ...
  special bond factors lj:    0        0        0       
  special bond factors coul:  0        0        0       
     4 = max # of 1-2 neighbors
     7 = max # of 1-3 neighbors
    16 = max # of 1-4 neighbors
    20 = max # of special neighbors
  special bonds CPU = 0.004 seconds
  read_data CPU = 0.067 seconds


variable        nsteps index 100000    # length of run
variable        nthermo index  100    # thermo output interval
variable        T    equal 300         # Temperature in K



# Conversion variables
variable kb        equal 1.38065e-23    # J/K
variable Myvol     equal "vol*10^-30" # Volume in m^3
variable kbt       equal "v_kb*v_T"
variable Nat       equal atoms
variable Rhokbt    equal "v_kbt*v_Nat/v_Myvol"
variable at2Pa     equal 101325
variable kcalmol2J equal "4183.9954/(6.022e23)"
variable C1        equal "v_kcalmol2J/v_Myvol" # Convert Cb from energy to pressure units
variable C2        equal "v_Myvol/v_kbt"       # Factor for Cfl terms
variable Pa2GPa    equal 1e-9
variable delta index 1.0e-6                     # Born numdiff strain magnitude

# The six virial stress component to compute <C^fl>
compute     VIR all pressure NULL virial
compute     born all born/matrix numdiff ${delta} VIR
compute     born all born/matrix numdiff 1.0e-6 VIR
variable s1 equal "-c_VIR[1]*v_at2Pa"
variable s2 equal "-c_VIR[2]*v_at2Pa"
variable s3 equal "-c_VIR[3]*v_at2Pa"
variable s6 equal "-c_VIR[4]*v_at2Pa"
variable s5 equal "-c_VIR[5]*v_at2Pa"
variable s4 equal "-c_VIR[6]*v_at2Pa"
variable press equal press


# Average of Born term and vector to store stress
# for post processing
fix CB all ave/time 1 ${nthermo} ${nthermo} c_born[*] ave running file born.out overwrite
fix CB all ave/time 1 100 ${nthermo} c_born[*] ave running file born.out overwrite
fix CB all ave/time 1 100 100 c_born[*] ave running file born.out overwrite
fix CPR all ave/time 1 1 1 c_VIR[*] file vir.out
fix APR all ave/time 1 1 1 v_press ave running
fix VEC all vector 1 v_s1 v_s2 v_s3 v_s4 v_s5 v_s6

thermo      ${nthermo}
thermo      100
thermo_style    custom step temp press f_APR c_born[1] f_CB[1] c_born[12] f_CB[12] c_born[4] f_CB[4]
thermo_modify line multi

fix     1 all nvt temp $T $T 100
fix     1 all nvt temp 300 $T 100
fix     1 all nvt temp 300 300 100

run         ${nsteps}
run         100000
Generated 153 of 153 mixed pair_coeff terms from geometric mixing rule
Neighbor list info ...
  update every 1 steps, delay 10 steps, check yes
  max neighbors/atom: 2000, page size: 100000
  master list distance cutoff = 12
  ghost atom cutoff = 12
  binsize = 6, bins = 5 5 5
  1 neighbor lists, perpetual/occasional/extra = 1 0 0
  (1) pair lj/cut, perpetual
      attributes: half, newton on
      pair build: half/bin/newton
      stencil: half/bin/3d
      bin: standard
WARNING: Inconsistent image flags (src/domain.cpp:819)
Per MPI rank memory allocation (min/avg/max) = 24.01 | 24.01 | 24.01 Mbytes
------------ Step              0 ----- CPU =            0 (sec) -------------
Step     =              0 Temp     =       296.6412 Press    =       773.5211 
f_APR    =       773.5211 c_born[1] =    890438.6256 f_CB[1]  =         0.0000 
c_born[12] =    174234.7200 f_CB[12] =         0.0000 c_born[4] =    346729.4185 
f_CB[4]  =         0.0000
------------ Step            100 ----- CPU =     29.15067 (sec) -------------
Step     =            100 Temp     =       303.2238 Press    =      -563.1581 
f_APR    =      -921.8349 c_born[1] =    882805.8132 f_CB[1]  =    883235.3962 
c_born[12] =    175534.7303 f_CB[12] =    175352.8381 c_born[4] =    347947.0383 
f_CB[4]  =    347956.4388
------------ Step            200 ----- CPU =     59.52643 (sec) -------------
Step     =            200 Temp     =       300.2419 Press    =       893.5074 
f_APR    =      -249.1607 c_born[1] =    886757.6937 f_CB[1]  =    885060.9997 
c_born[12] =    173606.3252 f_CB[12] =    175058.4217 c_born[4] =    346432.0161 
f_CB[4]  =    347527.2708
------------ Step            300 ----- CPU =     89.41596 (sec) -------------
Step     =            300 Temp     =       305.0961 Press    =       180.9274 
f_APR    =      -171.3890 c_born[1] =    893136.8555 f_CB[1]  =    886790.8079 
c_born[12] =    173629.9337 f_CB[12] =    174721.7341 c_born[4] =    346014.6509 
f_CB[4]  =    347261.9617
------------ Step            400 ----- CPU =      118.852 (sec) -------------
Step     =            400 Temp     =       297.0991 Press    =     -2440.4284 
f_APR    =      -143.0286 c_born[1] =    883352.8313 f_CB[1]  =    886339.5653 
c_born[12] =    174471.7315 f_CB[12] =    174434.7678 c_born[4] =    346891.7582 
f_CB[4]  =    347048.1650
------------ Step            500 ----- CPU =     148.6794 (sec) -------------
Step     =            500 Temp     =       290.2210 Press    =     -1387.0066 
f_APR    =      -252.4104 c_born[1] =    884890.1937 f_CB[1]  =    885020.3724 
c_born[12] =    174014.3924 f_CB[12] =    174580.6764 c_born[4] =    346536.3169 
f_CB[4]  =    347219.3068
------------ Step            600 ----- CPU =      180.865 (sec) -------------
Step     =            600 Temp     =       297.0662 Press    =       319.3519 
f_APR    =      -175.0993 c_born[1] =    890647.2133 f_CB[1]  =    885468.2431 
c_born[12] =    173119.0253 f_CB[12] =    174529.8118 c_born[4] =    344625.5206 
f_CB[4]  =    347043.9481
------------ Step            700 ----- CPU =     210.9788 (sec) -------------
Step     =            700 Temp     =       295.6491 Press    =      1006.2935 
f_APR    =      -127.7155 c_born[1] =    881561.4169 f_CB[1]  =    885310.8897 
c_born[12] =    174136.6550 f_CB[12] =    174416.8710 c_born[4] =    348307.3266 
f_CB[4]  =    346915.7529
------------ Step            800 ----- CPU =     240.8526 (sec) -------------
Step     =            800 Temp     =       308.4668 Press    =     -2934.3966 
f_APR    =       -33.5457 c_born[1] =    882222.3668 f_CB[1]  =    885193.4132 
c_born[12] =    175015.1228 f_CB[12] =    174515.8812 c_born[4] =    347763.8374 
f_CB[4]  =    347052.9386
------------ Step            900 ----- CPU =     270.6525 (sec) -------------
Step     =            900 Temp     =       301.0483 Press    =      -559.8234 
f_APR    =       -96.5492 c_born[1] =    888061.9538 f_CB[1]  =    885072.9343 
c_born[12] =    174836.7749 f_CB[12] =    174728.0021 c_born[4] =    347112.5743 
f_CB[4]  =    347253.4187
------------ Step           1000 ----- CPU =     301.5743 (sec) -------------
Step     =           1000 Temp     =       299.8504 Press    =     -3749.4676 
f_APR    =      -134.0060 c_born[1] =    881649.5537 f_CB[1]  =    885047.8503 
c_born[12] =    175250.2220 f_CB[12] =    174772.0124 c_born[4] =    348816.9342 
f_CB[4]  =    347284.4323
------------ Step           1100 ----- CPU =     332.4423 (sec) -------------
Step     =           1100 Temp     =       299.2546 Press    =      -747.1513 
f_APR    =      -129.9646 c_born[1] =    883762.8268 f_CB[1]  =    885146.8005 
c_born[12] =    177037.8690 f_CB[12] =    174772.3501 c_born[4] =    350894.1849 
f_CB[4]  =    347323.3332
------------ Step           1200 ----- CPU =     370.6599 (sec) -------------
Step     =           1200 Temp     =       295.2334 Press    =     -1957.9983 
f_APR    =      -118.8595 c_born[1] =    892726.6259 f_CB[1]  =    885540.4171 
c_born[12] =    178057.4237 f_CB[12] =    174947.3323 c_born[4] =    350199.5433 
f_CB[4]  =    347497.1394
------------ Step           1300 ----- CPU =     408.6202 (sec) -------------
Step     =           1300 Temp     =       300.9271 Press    =        25.4429 
f_APR    =       -73.3495 c_born[1] =    886320.0548 f_CB[1]  =    885628.8208 
c_born[12] =    176399.1687 f_CB[12] =    175246.6463 c_born[4] =    349587.0207 
f_CB[4]  =    347829.1122
------------ Step           1400 ----- CPU =     441.1837 (sec) -------------
Step     =           1400 Temp     =       305.1996 Press    =       663.7295 
f_APR    =       -61.2984 c_born[1] =    887977.4180 f_CB[1]  =    885964.1805 
c_born[12] =    179036.8211 f_CB[12] =    175441.3429 c_born[4] =    351252.1250 
f_CB[4]  =    348015.0812
------------ Step           1500 ----- CPU =     471.4358 (sec) -------------
Step     =           1500 Temp     =       312.5910 Press    =       953.4384 
f_APR    =        24.1172 c_born[1] =    887760.5364 f_CB[1]  =    885918.3496 
c_born[12] =    178506.7257 f_CB[12] =    175604.7149 c_born[4] =    351436.0453 
f_CB[4]  =    348186.2321
------------ Step           1600 ----- CPU =     501.3281 (sec) -------------
Step     =           1600 Temp     =       310.5871 Press    =      -530.6289 
f_APR    =        78.1404 c_born[1] =    895620.9851 f_CB[1]  =    886345.3673 
c_born[12] =    177561.5788 f_CB[12] =    175796.6481 c_born[4] =    349585.4465 
f_CB[4]  =    348356.5490
------------ Step           1700 ----- CPU =     532.3754 (sec) -------------
Step     =           1700 Temp     =       302.5396 Press    =       314.7225 
f_APR    =        42.1480 c_born[1] =    894466.8247 f_CB[1]  =    886723.8916 
c_born[12] =    176273.5587 f_CB[12] =    175848.7144 c_born[4] =    348100.8339 
f_CB[4]  =    348380.6916
------------ Step           1800 ----- CPU =     562.8955 (sec) -------------
Step     =           1800 Temp     =       300.4776 Press    =      -214.3211 
f_APR    =        53.0899 c_born[1] =    885226.1443 f_CB[1]  =    886847.2739 
c_born[12] =    176172.8143 f_CB[12] =    175847.8673 c_born[4] =    348909.7254 
f_CB[4]  =    348370.6574
------------ Step           1900 ----- CPU =     594.9944 (sec) -------------
Step     =           1900 Temp     =       299.5534 Press    =       668.1002 
f_APR    =        77.6788 c_born[1] =    885170.4974 f_CB[1]  =    886783.2381 
c_born[12] =    176958.5302 f_CB[12] =    175871.0210 c_born[4] =    349542.3816 
f_CB[4]  =    348395.4787
------------ Step           2000 ----- CPU =     625.9401 (sec) -------------
Step     =           2000 Temp     =       299.5146 Press    =      -499.1480 
f_APR    =        87.1514 c_born[1] =    881081.4654 f_CB[1]  =    886727.0370 
c_born[12] =    176154.4165 f_CB[12] =    175894.6071 c_born[4] =    348502.4292 
f_CB[4]  =    348386.4759
------------ Step           2100 ----- CPU =     655.3754 (sec) -------------
Step     =           2100 Temp     =       304.7240 Press    =        43.7858 
f_APR    =        96.2310 c_born[1] =    884463.1005 f_CB[1]  =    886567.4146 
c_born[12] =    175831.9803 f_CB[12] =    175858.8964 c_born[4] =    348430.0851 
f_CB[4]  =    348333.2522
------------ Step           2200 ----- CPU =     684.7548 (sec) -------------
Step     =           2200 Temp     =       304.1797 Press    =       555.1888 
f_APR    =        82.9490 c_born[1] =    891547.3905 f_CB[1]  =    886519.5359 
c_born[12] =    176055.6232 f_CB[12] =    175881.9327 c_born[4] =    348454.4211 
f_CB[4]  =    348379.3839
------------ Step           2300 ----- CPU =     714.3826 (sec) -------------
Step     =           2300 Temp     =       301.1474 Press    =      -859.8735 
f_APR    =        89.6578 c_born[1] =    891494.4093 f_CB[1]  =    886649.3297 
c_born[12] =    177805.8073 f_CB[12] =    175893.5374 c_born[4] =    350012.8384 
f_CB[4]  =    348381.4959
------------ Step           2400 ----- CPU =     744.2984 (sec) -------------
Step     =           2400 Temp     =       296.4921 Press    =      -185.7044 
f_APR    =       141.6257 c_born[1] =    894739.8201 f_CB[1]  =    887066.6293 
c_born[12] =    175251.9095 f_CB[12] =    175879.0654 c_born[4] =    347496.5827 
f_CB[4]  =    348341.5675
------------ Step           2500 ----- CPU =     774.6023 (sec) -------------
Step     =           2500 Temp     =       302.7810 Press    =      1254.2843 
f_APR    =       131.9172 c_born[1] =    887439.7219 f_CB[1]  =    887225.0002 
c_born[12] =    174369.0534 f_CB[12] =    175845.5524 c_born[4] =    346588.0863 
f_CB[4]  =    348292.8143
------------ Step           2600 ----- CPU =     804.1601 (sec) -------------
Step     =           2600 Temp     =       299.1954 Press    =      -381.9034 
f_APR    =       129.0755 c_born[1] =    883336.8760 f_CB[1]  =    887238.0413 
c_born[12] =    173596.1673 f_CB[12] =    175816.8371 c_born[4] =    346913.3324 
f_CB[4]  =    348263.3631
------------ Step           2700 ----- CPU =     834.0104 (sec) -------------
Step     =           2700 Temp     =       298.1566 Press    =      2352.0063 
f_APR    =       140.5221 c_born[1] =    880633.3668 f_CB[1]  =    886900.4646 
c_born[12] =    172950.7636 f_CB[12] =    175804.8563 c_born[4] =    346105.4573 
f_CB[4]  =    348289.6563
------------ Step           2800 ----- CPU =     867.3779 (sec) -------------
Step     =           2800 Temp     =       303.9405 Press    =       488.8661 
f_APR    =       166.3049 c_born[1] =    890682.5052 f_CB[1]  =    887046.8319 
c_born[12] =    176038.0980 f_CB[12] =    175788.3068 c_born[4] =    348406.9175 
f_CB[4]  =    348274.0554
------------ Step           2900 ----- CPU =     900.7368 (sec) -------------
Step     =           2900 Temp     =       304.0437 Press    =     -2587.0177 
f_APR    =       170.7247 c_born[1] =    889602.8687 f_CB[1]  =    887059.7757 
c_born[12] =    176738.1973 f_CB[12] =    175767.1822 c_born[4] =    349401.8206 
f_CB[4]  =    348276.7938
------------ Step           3000 ----- CPU =     931.6195 (sec) -------------
Step     =           3000 Temp     =       297.7623 Press    =      -597.9844 
f_APR    =       194.7355 c_born[1] =    879546.9383 f_CB[1]  =    887023.9095 
c_born[12] =    176244.3518 f_CB[12] =    175764.0681 c_born[4] =    349758.4394 
f_CB[4]  =    348283.7806
------------ Step           3100 ----- CPU =     962.3263 (sec) -------------
Step     =           3100 Temp     =       296.6864 Press    =     -1953.5485 
f_APR    =       182.7180 c_born[1] =    892368.8424 f_CB[1]  =    887096.7393 
c_born[12] =    175079.5130 f_CB[12] =    175773.4924 c_born[4] =    347913.3840 
f_CB[4]  =    348296.5058
------------ Step           3200 ----- CPU =     992.4419 (sec) -------------
Step     =           3200 Temp     =       307.4880 Press    =       761.7541 
f_APR    =       196.7878 c_born[1] =    876235.0909 f_CB[1]  =    886998.8620 
c_born[12] =    174626.9524 f_CB[12] =    175738.7660 c_born[4] =    347524.9191 
f_CB[4]  =    348278.5909
------------ Step           3300 ----- CPU =     1021.979 (sec) -------------
Step     =           3300 Temp     =       299.7459 Press    =      1452.4120 
f_APR    =       208.2623 c_born[1] =    892683.6718 f_CB[1]  =    886933.2858 
c_born[12] =    175262.6056 f_CB[12] =    175755.2750 c_born[4] =    347385.0616 
f_CB[4]  =    348299.6560
------------ Step           3400 ----- CPU =     1051.915 (sec) -------------
Step     =           3400 Temp     =       304.4535 Press    =     -2105.5093 
f_APR    =       217.6317 c_born[1] =    881599.3318 f_CB[1]  =    886861.9555 
c_born[12] =    178240.0591 f_CB[12] =    175746.8024 c_born[4] =    351266.7945 
f_CB[4]  =    348293.8113
------------ Step           3500 ----- CPU =     1083.305 (sec) -------------
Step     =           3500 Temp     =       310.1056 Press    =     -1297.1763 
f_APR    =       210.8295 c_born[1] =    881908.6687 f_CB[1]  =    886762.9017 
c_born[12] =    175445.8414 f_CB[12] =    175779.6896 c_born[4] =    348161.9307 
f_CB[4]  =    348332.3108
------------ Step           3600 ----- CPU =     1115.177 (sec) -------------
Step     =           3600 Temp     =       291.5358 Press    =        21.1828 
f_APR    =       203.7802 c_born[1] =    882023.1960 f_CB[1]  =    886681.1327 
c_born[12] =    175426.6463 f_CB[12] =    175796.3533 c_born[4] =    348679.1619 
f_CB[4]  =    348355.3124
------------ Step           3700 ----- CPU =     1148.884 (sec) -------------
Step     =           3700 Temp     =       301.3313 Press    =        79.3254 
f_APR    =       224.8746 c_born[1] =    886492.2498 f_CB[1]  =    886624.5085 
c_born[12] =    174000.5677 f_CB[12] =    175785.4660 c_born[4] =    346848.7211 
f_CB[4]  =    348346.8634
------------ Step           3800 ----- CPU =     1181.469 (sec) -------------
Step     =           3800 Temp     =       302.0071 Press    =      2060.4522 
f_APR    =       218.9921 c_born[1] =    888196.5274 f_CB[1]  =    886708.4304 
c_born[12] =    176109.1203 f_CB[12] =    175729.5977 c_born[4] =    348378.3305 
f_CB[4]  =    348289.4888
------------ Step           3900 ----- CPU =     1214.647 (sec) -------------
Step     =           3900 Temp     =       304.6221 Press    =      2517.0279 
f_APR    =       234.3197 c_born[1] =    877288.4610 f_CB[1]  =    886505.5876 
c_born[12] =    179113.1237 f_CB[12] =    175773.1931 c_born[4] =    352863.2077 
f_CB[4]  =    348359.2393
------------ Step           4000 ----- CPU =     1249.626 (sec) -------------
Step     =           4000 Temp     =       309.4255 Press    =      2333.0413 
f_APR    =       251.6131 c_born[1] =    877562.6817 f_CB[1]  =    886356.2523 
c_born[12] =    174923.2529 f_CB[12] =    175811.8309 c_born[4] =    348247.5929 
f_CB[4]  =    348417.9268
------------ Step           4100 ----- CPU =     1285.522 (sec) -------------
Step     =           4100 Temp     =       300.7634 Press    =     -1722.8537 
f_APR    =       236.5112 c_born[1] =    883335.5643 f_CB[1]  =    886204.8476 
c_born[12] =    178116.4481 f_CB[12] =    175854.0246 c_born[4] =    352161.3184 
f_CB[4]  =    348478.5292
------------ Step           4200 ----- CPU =     1316.918 (sec) -------------
Step     =           4200 Temp     =       297.3919 Press    =      -693.2928 
f_APR    =       229.1118 c_born[1] =    888579.6677 f_CB[1]  =    886239.2824 
c_born[12] =    176996.0871 f_CB[12] =    175893.4085 c_born[4] =    350143.2853 
f_CB[4]  =    348536.1898
------------ Step           4300 ----- CPU =     1353.165 (sec) -------------
Step     =           4300 Temp     =       301.4968 Press    =      1438.1850 
f_APR    =       244.5591 c_born[1] =    890663.7700 f_CB[1]  =    886181.0495 
c_born[12] =    177687.2134 f_CB[12] =    175921.2382 c_born[4] =    349985.8010 
f_CB[4]  =    348574.7129
------------ Step           4400 ----- CPU =     1389.748 (sec) -------------
Step     =           4400 Temp     =       298.7090 Press    =      -485.8029 
f_APR    =       248.0172 c_born[1] =    881839.6621 f_CB[1]  =    886107.1040 
c_born[12] =    174200.3994 f_CB[12] =    175915.9581 c_born[4] =    348140.3394 
f_CB[4]  =    348588.7798
------------ Step           4500 ----- CPU =     1428.236 (sec) -------------
Step     =           4500 Temp     =       300.0982 Press    =      1428.2615 
f_APR    =       258.4012 c_born[1] =    887892.6081 f_CB[1]  =    886057.8099 
c_born[12] =    177696.7540 f_CB[12] =    175906.4004 c_born[4] =    350877.8614 
f_CB[4]  =    348604.4882
------------ Step           4600 ----- CPU =     1461.825 (sec) -------------
Step     =           4600 Temp     =       307.1553 Press    =      1282.1798 
f_APR    =       277.0685 c_born[1] =    888975.9360 f_CB[1]  =    886134.2859 
c_born[12] =    175650.3049 f_CB[12] =    175938.6524 c_born[4] =    348906.3181 
f_CB[4]  =    348644.7524
------------ Step           4700 ----- CPU =      1500.92 (sec) -------------
Step     =           4700 Temp     =       308.3374 Press    =       822.2666 
f_APR    =       282.2239 c_born[1] =    894253.1790 f_CB[1]  =    886167.7346 
c_born[12] =    175370.7464 f_CB[12] =    175921.8426 c_born[4] =    348303.8805 
f_CB[4]  =    348640.7578
------------ Step           4800 ----- CPU =     1534.176 (sec) -------------
Step     =           4800 Temp     =       297.8657 Press    =      -573.0018 
f_APR    =       286.9563 c_born[1] =    879961.5676 f_CB[1]  =    886232.1723 
c_born[12] =    178638.1333 f_CB[12] =    175917.8948 c_born[4] =    352200.2111 
f_CB[4]  =    348635.4970
------------ Step           4900 ----- CPU =     1569.117 (sec) -------------
Step     =           4900 Temp     =       299.2860 Press    =       102.0444 
f_APR    =       281.6845 c_born[1] =    885446.8962 f_CB[1]  =    886130.3900 
c_born[12] =    176061.1129 f_CB[12] =    175939.8133 c_born[4] =    348730.2826 
f_CB[4]  =    348662.7640
------------ Step           5000 ----- CPU =     1598.559 (sec) -------------
Step     =           5000 Temp     =       304.2940 Press    =      -343.4773 
f_APR    =       273.9692 c_born[1] =    890504.3942 f_CB[1]  =    886160.5378 
c_born[12] =    177567.0920 f_CB[12] =    175946.5013 c_born[4] =    350099.2941 
f_CB[4]  =    348665.2217
------------ Step           5100 ----- CPU =     1627.539 (sec) -------------
Step     =           5100 Temp     =       304.8398 Press    =      -659.7281 
f_APR    =       273.2465 c_born[1] =    878694.6925 f_CB[1]  =    886200.1417 
c_born[12] =    175022.5897 f_CB[12] =    175944.4436 c_born[4] =    348496.0695 
f_CB[4]  =    348664.9045
------------ Step           5200 ----- CPU =     1658.605 (sec) -------------
Step     =           5200 Temp     =       299.7134 Press    =     -1050.9344 
f_APR    =       268.5738 c_born[1] =    880885.7845 f_CB[1]  =    886048.7386 
c_born[12] =    176556.4538 f_CB[12] =    175948.6970 c_born[4] =    350080.7801 
f_CB[4]  =    348676.3474
------------ Step           5300 ----- CPU =     1690.187 (sec) -------------
Step     =           5300 Temp     =       289.0390 Press    =       -20.1279 
f_APR    =       266.6501 c_born[1] =    890842.4977 f_CB[1]  =    886065.2823 
c_born[12] =    171967.9223 f_CB[12] =    175907.4253 c_born[4] =    344505.2438 
f_CB[4]  =    348634.4984
------------ Step           5400 ----- CPU =     1726.763 (sec) -------------
Step     =           5400 Temp     =       293.0271 Press    =      -747.3231 
f_APR    =       279.2620 c_born[1] =    895584.6203 f_CB[1]  =    886103.4281 
c_born[12] =    177072.7942 f_CB[12] =    175880.0859 c_born[4] =    348982.7952 
f_CB[4]  =    348600.6365
------------ Step           5500 ----- CPU =     1757.702 (sec) -------------
Step     =           5500 Temp     =       297.0422 Press    =     -2658.2764 
f_APR    =       277.6810 c_born[1] =    889364.9063 f_CB[1]  =    886075.4273 
c_born[12] =    173699.7628 f_CB[12] =    175876.3456 c_born[4] =    345075.6086 
f_CB[4]  =    348590.9909
------------ Step           5600 ----- CPU =     1788.003 (sec) -------------
Step     =           5600 Temp     =       302.1294 Press    =       529.3256 
f_APR    =       284.6563 c_born[1] =    880930.3660 f_CB[1]  =    886092.3731 
c_born[12] =    175957.4317 f_CB[12] =    175849.6074 c_born[4] =    349774.1349 
f_CB[4]  =    348570.2916
------------ Step           5700 ----- CPU =     1817.235 (sec) -------------
Step     =           5700 Temp     =       299.5861 Press    =      -742.4556 
f_APR    =       280.1065 c_born[1] =    879758.2148 f_CB[1]  =    885891.2421 
c_born[12] =    174865.4857 f_CB[12] =    175834.4636 c_born[4] =    347875.2263 
f_CB[4]  =    348575.5063
------------ Step           5800 ----- CPU =     1846.546 (sec) -------------
Step     =           5800 Temp     =       297.6545 Press    =       270.0849 
f_APR    =       273.9531 c_born[1] =    881062.3733 f_CB[1]  =    885841.6557 
c_born[12] =    174740.0187 f_CB[12] =    175840.7949 c_born[4] =    347841.1245 
f_CB[4]  =    348585.4981
------------ Step           5900 ----- CPU =     1876.555 (sec) -------------
Step     =           5900 Temp     =       305.5122 Press    =      -575.3558 
f_APR    =       289.0944 c_born[1] =    885250.3783 f_CB[1]  =    885737.9368 
c_born[12] =    171723.3630 f_CB[12] =    175785.9069 c_born[4] =    343704.9915 
f_CB[4]  =    348536.1595
------------ Step           6000 ----- CPU =     1905.809 (sec) -------------
Step     =           6000 Temp     =       289.7637 Press    =       662.5477 
f_APR    =       284.5546 c_born[1] =    884905.6636 f_CB[1]  =    885753.2121 
c_born[12] =    174389.2143 f_CB[12] =    175758.4233 c_born[4] =    347612.1145 
f_CB[4]  =    348506.7168
------------ Step           6100 ----- CPU =     1935.588 (sec) -------------
Step     =           6100 Temp     =       293.3707 Press    =       739.4227 
f_APR    =       266.6680 c_born[1] =    884208.2656 f_CB[1]  =    885718.7820 
c_born[12] =    172685.1886 f_CB[12] =    175730.4598 c_born[4] =    345207.9653 
f_CB[4]  =    348485.8839
------------ Step           6200 ----- CPU =     1965.701 (sec) -------------
Step     =           6200 Temp     =       300.0043 Press    =      2853.5783 
f_APR    =       260.5734 c_born[1] =    886082.3313 f_CB[1]  =    885780.1496 
c_born[12] =    173482.8336 f_CB[12] =    175687.4421 c_born[4] =    346033.7860 
f_CB[4]  =    348433.8088
------------ Step           6300 ----- CPU =     1996.762 (sec) -------------
Step     =           6300 Temp     =       300.2583 Press    =       -62.1692 
f_APR    =       248.3667 c_born[1] =    877865.2031 f_CB[1]  =    885743.8615 
c_born[12] =    173869.3144 f_CB[12] =    175654.8008 c_born[4] =    347193.9756 
f_CB[4]  =    348400.0824
------------ Step           6400 ----- CPU =     2031.692 (sec) -------------
Step     =           6400 Temp     =       305.1082 Press    =      -397.5239 
f_APR    =       240.4982 c_born[1] =    890869.5086 f_CB[1]  =    885682.7948 
c_born[12] =    174062.5225 f_CB[12] =    175646.6215 c_born[4] =    346109.9585 
f_CB[4]  =    348392.3146
------------ Step           6500 ----- CPU =      2066.39 (sec) -------------
Step     =           6500 Temp     =       298.0150 Press    =      -467.5068 
f_APR    =       241.5245 c_born[1] =    877894.2481 f_CB[1]  =    885682.2537 
c_born[12] =    173340.1328 f_CB[12] =    175625.1994 c_born[4] =    346508.9972 
f_CB[4]  =    348363.4962
------------ Step           6600 ----- CPU =     2096.271 (sec) -------------
Step     =           6600 Temp     =       291.2834 Press    =     -1319.4469 
f_APR    =       229.2694 c_born[1] =    890379.7407 f_CB[1]  =    885636.2496 
c_born[12] =    173577.5325 f_CB[12] =    175604.4185 c_born[4] =    346268.7045 
f_CB[4]  =    348347.8408
------------ Step           6700 ----- CPU =     2126.243 (sec) -------------
Step     =           6700 Temp     =       294.0929 Press    =      -734.9335 
f_APR    =       229.4040 c_born[1] =    891489.0493 f_CB[1]  =    885630.0109 
c_born[12] =    175469.5525 f_CB[12] =    175572.4789 c_born[4] =    347378.7213 
f_CB[4]  =    348316.6659
------------ Step           6800 ----- CPU =     2156.452 (sec) -------------
Step     =           6800 Temp     =       296.5842 Press    =     -1236.6012 
f_APR    =       226.5144 c_born[1] =    898615.2193 f_CB[1]  =    885725.8457 
c_born[12] =    175324.6793 f_CB[12] =    175578.3532 c_born[4] =    346436.3994 
f_CB[4]  =    348305.5975
------------ Step           6900 ----- CPU =     2186.398 (sec) -------------
Step     =           6900 Temp     =       303.2468 Press    =       878.2070 
f_APR    =       231.1902 c_born[1] =    899687.6465 f_CB[1]  =    885867.3678 
c_born[12] =    176196.1080 f_CB[12] =    175563.9660 c_born[4] =    347328.3962 
f_CB[4]  =    348276.1856
------------ Step           7000 ----- CPU =     2215.697 (sec) -------------
Step     =           7000 Temp     =       298.7301 Press    =       135.9330 
f_APR    =       232.8599 c_born[1] =    893617.8505 f_CB[1]  =    886006.7727 
c_born[12] =    176838.3080 f_CB[12] =    175575.6908 c_born[4] =    348784.5798 
f_CB[4]  =    348269.1182
------------ Step           7100 ----- CPU =     2244.822 (sec) -------------
Step     =           7100 Temp     =       301.4244 Press    =      -733.9780 
f_APR    =       234.0229 c_born[1] =    886249.7613 f_CB[1]  =    885979.7677 
c_born[12] =    176869.9331 f_CB[12] =    175599.6189 c_born[4] =    349414.3841 
f_CB[4]  =    348297.6693
------------ Step           7200 ----- CPU =     2274.531 (sec) -------------
Step     =           7200 Temp     =       296.7897 Press    =       657.1630 
f_APR    =       238.0305 c_born[1] =    883637.3401 f_CB[1]  =    885990.7220 
c_born[12] =    174606.5867 f_CB[12] =    175607.4670 c_born[4] =    347668.1979 
f_CB[4]  =    348304.2747
------------ Step           7300 ----- CPU =     2304.319 (sec) -------------
Step     =           7300 Temp     =       299.1030 Press    =      -568.8873 
f_APR    =       231.9054 c_born[1] =    879255.6359 f_CB[1]  =    885941.6031 
c_born[12] =    175309.2085 f_CB[12] =    175601.2046 c_born[4] =    348615.0925 
f_CB[4]  =    348298.6037
------------ Step           7400 ----- CPU =     2333.792 (sec) -------------
Step     =           7400 Temp     =       300.6668 Press    =      -446.5145 
f_APR    =       224.9426 c_born[1] =    897033.9714 f_CB[1]  =    885999.7678 
c_born[12] =    175367.9751 f_CB[12] =    175582.0007 c_born[4] =    346707.1857 
f_CB[4]  =    348274.9296
------------ Step           7500 ----- CPU =     2363.688 (sec) -------------
Step     =           7500 Temp     =       297.8317 Press    =       117.7088 
f_APR    =       227.9954 c_born[1] =    884081.2980 f_CB[1]  =    885991.1251 
c_born[12] =    175447.9753 f_CB[12] =    175588.4432 c_born[4] =    347914.6952 
f_CB[4]  =    348281.4012
------------ Step           7600 ----- CPU =     2393.846 (sec) -------------
Step     =           7600 Temp     =       298.0610 Press    =      -880.0482 
f_APR    =       220.9275 c_born[1] =    890354.1047 f_CB[1]  =    886056.2847 
c_born[12] =    175611.0828 f_CB[12] =    175573.0370 c_born[4] =    347999.4904 
f_CB[4]  =    348261.2784
------------ Step           7700 ----- CPU =     2423.497 (sec) -------------
Step     =           7700 Temp     =       290.0484 Press    =     -2245.0846 
f_APR    =       225.0643 c_born[1] =    897281.6806 f_CB[1]  =    886131.0252 
c_born[12] =    177170.0606 f_CB[12] =    175596.9056 c_born[4] =    349712.1320 
f_CB[4]  =    348287.9069
------------ Step           7800 ----- CPU =     2453.445 (sec) -------------
Step     =           7800 Temp     =       297.7830 Press    =       371.7525 
f_APR    =       230.3084 c_born[1] =    890348.1772 f_CB[1]  =    886255.2992 
c_born[12] =    174086.4521 f_CB[12] =    175606.9841 c_born[4] =    346739.8685 
f_CB[4]  =    348292.5649
------------ Step           7900 ----- CPU =     2482.618 (sec) -------------
Step     =           7900 Temp     =       302.7831 Press    =     -2077.8527 
f_APR    =       230.9070 c_born[1] =    890796.7284 f_CB[1]  =    886271.0557 
c_born[12] =    174128.8625 f_CB[12] =    175599.4086 c_born[4] =    345921.7316 
f_CB[4]  =    348284.2322
------------ Step           8000 ----- CPU =     2512.188 (sec) -------------
Step     =           8000 Temp     =       301.7414 Press    =       640.0004 
f_APR    =       230.7379 c_born[1] =    883148.0437 f_CB[1]  =    886310.8686 
c_born[12] =    173992.8709 f_CB[12] =    175570.1640 c_born[4] =    346218.9799 
f_CB[4]  =    348247.1214
------------ Step           8100 ----- CPU =     2541.771 (sec) -------------
Step     =           8100 Temp     =       299.3876 Press    =      -522.5471 
f_APR    =       224.7484 c_born[1] =    876700.1467 f_CB[1]  =    886248.2724 
c_born[12] =    177117.1623 f_CB[12] =    175551.8996 c_born[4] =    349861.2596 
f_CB[4]  =    348226.9964
------------ Step           8200 ----- CPU =     2570.974 (sec) -------------
Step     =           8200 Temp     =       310.4268 Press    =       -20.6329 
f_APR    =       213.9758 c_born[1] =    886963.8937 f_CB[1]  =    886201.8488 
c_born[12] =    175242.2869 f_CB[12] =    175565.8391 c_born[4] =    347575.4309 
f_CB[4]  =    348236.2255
------------ Step           8300 ----- CPU =     2599.978 (sec) -------------
Step     =           8300 Temp     =       298.8818 Press    =        -4.4588 
f_APR    =       205.9738 c_born[1] =    893918.7186 f_CB[1]  =    886243.1408 
c_born[12] =    173291.2236 f_CB[12] =    175543.9563 c_born[4] =    343158.0751 
f_CB[4]  =    348198.5226
------------ Step           8400 ----- CPU =     2630.264 (sec) -------------
Step     =           8400 Temp     =       292.5652 Press    =        19.2875 
f_APR    =       200.7935 c_born[1] =    890245.5835 f_CB[1]  =    886264.9866 
c_born[12] =    175818.6214 f_CB[12] =    175516.6733 c_born[4] =    348028.5121 
f_CB[4]  =    348160.7262
------------ Step           8500 ----- CPU =     2660.267 (sec) -------------
Step     =           8500 Temp     =       290.7237 Press    =       666.1037 
f_APR    =       202.4077 c_born[1] =    893910.9299 f_CB[1]  =    886264.4612 
c_born[12] =    174162.8207 f_CB[12] =    175514.7228 c_born[4] =    345491.2394 
f_CB[4]  =    348156.3792
------------ Step           8600 ----- CPU =     2690.216 (sec) -------------
Step     =           8600 Temp     =       304.2799 Press    =     -1579.4583 
f_APR    =       204.0053 c_born[1] =    891241.1813 f_CB[1]  =    886377.0367 
c_born[12] =    172797.8116 f_CB[12] =    175487.0135 c_born[4] =    344565.7202 
f_CB[4]  =    348111.1994
------------ Step           8700 ----- CPU =      2720.51 (sec) -------------
Step     =           8700 Temp     =       310.3232 Press    =      2190.9180 
f_APR    =       197.0263 c_born[1] =    891840.5523 f_CB[1]  =    886413.9761 
c_born[12] =    174334.3726 f_CB[12] =    175480.2284 c_born[4] =    345754.0046 
f_CB[4]  =    348097.6271
------------ Step           8800 ----- CPU =      2749.58 (sec) -------------
Step     =           8800 Temp     =       311.7816 Press    =     -1172.5345 
f_APR    =       198.3233 c_born[1] =    889532.9115 f_CB[1]  =    886466.6889 
c_born[12] =    172577.2932 f_CB[12] =    175458.1626 c_born[4] =    344480.5670 
f_CB[4]  =    348068.7719
------------ Step           8900 ----- CPU =     2778.984 (sec) -------------
Step     =           8900 Temp     =       304.2003 Press    =     -1044.8907 
f_APR    =       199.6936 c_born[1] =    891731.2199 f_CB[1]  =    886507.1218 
c_born[12] =    173046.1890 f_CB[12] =    175434.7147 c_born[4] =    345676.9921 
f_CB[4]  =    348039.3949
------------ Step           9000 ----- CPU =     2808.758 (sec) -------------
Step     =           9000 Temp     =       300.7597 Press    =       772.8819 
f_APR    =       197.2440 c_born[1] =    901139.5150 f_CB[1]  =    886574.8223 
c_born[12] =    173931.1463 f_CB[12] =    175433.3478 c_born[4] =    344293.9972 
f_CB[4]  =    348029.1208
------------ Step           9100 ----- CPU =     2838.031 (sec) -------------
Step     =           9100 Temp     =       297.4368 Press    =      1686.6576 
f_APR    =       197.9010 c_born[1] =    889001.2668 f_CB[1]  =    886694.2557 
c_born[12] =    172718.9596 f_CB[12] =    175418.1220 c_born[4] =    344701.9491 
f_CB[4]  =    347995.8847
------------ Step           9200 ----- CPU =     2867.393 (sec) -------------
Step     =           9200 Temp     =       301.7747 Press    =      1620.6922 
f_APR    =       197.0080 c_born[1] =    893234.3348 f_CB[1]  =    886755.9415 
c_born[12] =    176444.5363 f_CB[12] =    175412.0758 c_born[4] =    348806.9092 
f_CB[4]  =    347982.1921
------------ Step           9300 ----- CPU =     2896.215 (sec) -------------
Step     =           9300 Temp     =       305.4677 Press    =      1628.2242 
f_APR    =       201.4160 c_born[1] =    893357.8863 f_CB[1]  =    886769.0541 
c_born[12] =    176122.3271 f_CB[12] =    175410.6841 c_born[4] =    348332.7334 
f_CB[4]  =    347979.7184
------------ Step           9400 ----- CPU =     2926.038 (sec) -------------
Step     =           9400 Temp     =       303.0896 Press    =       749.2089 
f_APR    =       199.3711 c_born[1] =    889768.7141 f_CB[1]  =    886832.9272 
c_born[12] =    174739.5487 f_CB[12] =    175407.0413 c_born[4] =    347739.4150 
f_CB[4]  =    347972.2634
------------ Step           9500 ----- CPU =     2955.239 (sec) -------------
Step     =           9500 Temp     =       307.6712 Press    =     -1555.8761 
f_APR    =       196.7268 c_born[1] =    891178.4469 f_CB[1]  =    886897.0388 
c_born[12] =    176640.8968 f_CB[12] =    175417.9998 c_born[4] =    348791.8276 
f_CB[4]  =    347981.8825
------------ Step           9600 ----- CPU =     2986.213 (sec) -------------
Step     =           9600 Temp     =       299.0882 Press    =        51.9841 
f_APR    =       197.8921 c_born[1] =    885419.7958 f_CB[1]  =    886902.3996 
c_born[12] =    177527.3006 f_CB[12] =    175446.3108 c_born[4] =    349973.7475 
f_CB[4]  =    348010.9142
------------ Step           9700 ----- CPU =     3016.386 (sec) -------------
Step     =           9700 Temp     =       302.1452 Press    =     -1160.6717 
f_APR    =       192.1702 c_born[1] =    885658.1541 f_CB[1]  =    886873.2778 
c_born[12] =    177002.4768 f_CB[12] =    175467.7285 c_born[4] =    349631.2299 
f_CB[4]  =    348036.6790
------------ Step           9800 ----- CPU =     3045.931 (sec) -------------
Step     =           9800 Temp     =       300.9508 Press    =      -316.0070 
f_APR    =       189.8919 c_born[1] =    880581.5497 f_CB[1]  =    886855.3779 
c_born[12] =    174505.7228 f_CB[12] =    175467.6254 c_born[4] =    347541.8209 
f_CB[4]  =    348035.3229
------------ Step           9900 ----- CPU =     3074.961 (sec) -------------
Step     =           9900 Temp     =       298.6693 Press    =       162.0295 
f_APR    =       189.9053 c_born[1] =    899636.0609 f_CB[1]  =    886902.3750 
c_born[12] =    178229.3273 f_CB[12] =    175466.1462 c_born[4] =    349174.5727 
f_CB[4]  =    348024.3555
------------ Step          10000 ----- CPU =     3104.919 (sec) -------------
Step     =          10000 Temp     =       299.1277 Press    =     -1176.1749 
f_APR    =       188.5063 c_born[1] =    890329.1453 f_CB[1]  =    886924.5201 
c_born[12] =    178073.7730 f_CB[12] =    175488.7290 c_born[4] =    350417.1526 
f_CB[4]  =    348045.9810
------------ Step          10100 ----- CPU =     3134.341 (sec) -------------
Step     =          10100 Temp     =       300.5006 Press    =      -710.6371 
f_APR    =       191.6212 c_born[1] =    889312.1698 f_CB[1]  =    886963.2535 
c_born[12] =    177494.1080 f_CB[12] =    175513.2771 c_born[4] =    350844.1541 
f_CB[4]  =    348071.1600
------------ Step          10200 ----- CPU =     3164.513 (sec) -------------
Step     =          10200 Temp     =       295.6543 Press    =        23.5992 
f_APR    =       191.2486 c_born[1] =    884257.2968 f_CB[1]  =    886966.1008 
c_born[12] =    176150.6179 f_CB[12] =    175527.8838 c_born[4] =    348537.1439 
f_CB[4]  =    348089.0714
------------ Step          10300 ----- CPU =     3193.693 (sec) -------------
Step     =          10300 Temp     =       301.7693 Press    =      1572.9116 
f_APR    =       191.6403 c_born[1] =    879714.8639 f_CB[1]  =    886931.4651 
c_born[12] =    174931.3137 f_CB[12] =    175526.2801 c_born[4] =    348513.3200 
f_CB[4]  =    348091.0876
------------ Step          10400 ----- CPU =      3224.26 (sec) -------------
Step     =          10400 Temp     =       298.5491 Press    =        99.5465 
f_APR    =       192.9919 c_born[1] =    885302.6075 f_CB[1]  =    886905.0139 
c_born[12] =    176340.5417 f_CB[12] =    175516.4530 c_born[4] =    349686.4413 
f_CB[4]  =    348088.5603
------------ Step          10500 ----- CPU =     3253.616 (sec) -------------
Step     =          10500 Temp     =       306.6068 Press    =      -723.6622 
f_APR    =       191.8446 c_born[1] =    893169.4362 f_CB[1]  =    886903.2467 
c_born[12] =    173606.2522 f_CB[12] =    175518.3617 c_born[4] =    345722.6730 
f_CB[4]  =    348098.2856
------------ Step          10600 ----- CPU =     3283.226 (sec) -------------
Step     =          10600 Temp     =       302.4767 Press    =      -140.3686 
f_APR    =       187.7037 c_born[1] =    883649.0153 f_CB[1]  =    886913.5392 
c_born[12] =    177382.7428 f_CB[12] =    175528.5073 c_born[4] =    349949.1182 
f_CB[4]  =    348111.9439
------------ Step          10700 ----- CPU =     3312.679 (sec) -------------
Step     =          10700 Temp     =       304.2719 Press    =        70.0869 
f_APR    =       178.7010 c_born[1] =    876259.5905 f_CB[1]  =    886846.8157 
c_born[12] =    175135.3537 f_CB[12] =    175550.4708 c_born[4] =    348443.7564 
f_CB[4]  =    348138.8896
------------ Step          10800 ----- CPU =     3341.886 (sec) -------------
Step     =          10800 Temp     =       297.7537 Press    =      1960.5263 
f_APR    =       177.5820 c_born[1] =    882553.2259 f_CB[1]  =    886810.2969 
c_born[12] =    177352.8912 f_CB[12] =    175553.5261 c_born[4] =    350840.8918 
f_CB[4]  =    348147.3794
------------ Step          10900 ----- CPU =     3371.364 (sec) -------------
Step     =          10900 Temp     =       299.2123 Press    =       767.3896 
f_APR    =       182.4969 c_born[1] =    887614.1871 f_CB[1]  =    886777.4042 
c_born[12] =    177498.4779 f_CB[12] =    175566.1156 c_born[4] =    350241.3049 
f_CB[4]  =    348164.3359
------------ Step          11000 ----- CPU =     3400.566 (sec) -------------
Step     =          11000 Temp     =       300.9268 Press    =       954.6308 
f_APR    =       180.4196 c_born[1] =    883202.4485 f_CB[1]  =    886769.2323 
c_born[12] =    176078.5189 f_CB[12] =    175576.7808 c_born[4] =    349328.7954 
f_CB[4]  =    348180.7155
------------ Step          11100 ----- CPU =     3429.872 (sec) -------------
Step     =          11100 Temp     =       302.5406 Press    =        74.7040 
f_APR    =       184.5275 c_born[1] =    887585.9907 f_CB[1]  =    886727.7249 
c_born[12] =    177777.1093 f_CB[12] =    175583.4878 c_born[4] =    350469.4812 
f_CB[4]  =    348192.7304
------------ Step          11200 ----- CPU =     3460.186 (sec) -------------
Step     =          11200 Temp     =       307.7251 Press    =     -1813.3838 
f_APR    =       183.0863 c_born[1] =    879203.3226 f_CB[1]  =    886672.0518 
c_born[12] =    177627.8509 f_CB[12] =    175601.2065 c_born[4] =    351567.5280 
f_CB[4]  =    348220.4126
------------ Step          11300 ----- CPU =     3489.728 (sec) -------------
Step     =          11300 Temp     =       303.0289 Press    =      1543.7779 
f_APR    =       189.9376 c_born[1] =    889418.1661 f_CB[1]  =    886696.6689 
c_born[12] =    177676.1957 f_CB[12] =    175619.1068 c_born[4] =    350463.0189 
f_CB[4]  =    348237.8831
------------ Step          11400 ----- CPU =      3519.91 (sec) -------------
Step     =          11400 Temp     =       302.1385 Press    =      -743.0423 
f_APR    =       185.9513 c_born[1] =    892914.2371 f_CB[1]  =    886706.4923 
c_born[12] =    177865.1119 f_CB[12] =    175641.0378 c_born[4] =    349582.2903 
f_CB[4]  =    348259.8731
------------ Step          11500 ----- CPU =     3549.345 (sec) -------------
Step     =          11500 Temp     =       288.2250 Press    =      -562.2016 
f_APR    =       183.7691 c_born[1] =    894319.7067 f_CB[1]  =    886769.1262 
c_born[12] =    179024.3408 f_CB[12] =    175662.0404 c_born[4] =    350887.6843 
f_CB[4]  =    348273.9195
------------ Step          11600 ----- CPU =     3579.755 (sec) -------------
Step     =          11600 Temp     =       300.1356 Press    =       814.2853 
f_APR    =       190.2186 c_born[1] =    900664.2947 f_CB[1]  =    886873.4126 
c_born[12] =    176598.3196 f_CB[12] =    175677.6254 c_born[4] =    348732.9827 
f_CB[4]  =    348283.2997
------------ Step          11700 ----- CPU =     3609.468 (sec) -------------
Step     =          11700 Temp     =       302.4492 Press    =     -1977.5846 
f_APR    =       190.3692 c_born[1] =    883810.8241 f_CB[1]  =    886902.0158 
c_born[12] =    177164.3526 f_CB[12] =    175684.1663 c_born[4] =    350918.0407 
f_CB[4]  =    348295.7715
------------ Step          11800 ----- CPU =      3638.76 (sec) -------------
Step     =          11800 Temp     =       307.2473 Press    =       605.1089 
f_APR    =       190.7730 c_born[1] =    887315.8435 f_CB[1]  =    886910.9609 
c_born[12] =    176766.0451 f_CB[12] =    175699.9442 c_born[4] =    349759.0904 
f_CB[4]  =    348316.7354
------------ Step          11900 ----- CPU =     3667.923 (sec) -------------
Step     =          11900 Temp     =       303.3916 Press    =      1386.4390 
f_APR    =       192.9678 c_born[1] =    882636.4585 f_CB[1]  =    886906.4437 
c_born[12] =    178959.3861 f_CB[12] =    175717.3888 c_born[4] =    352710.8913 
f_CB[4]  =    348342.2171
------------ Step          12000 ----- CPU =     3698.125 (sec) -------------
Step     =          12000 Temp     =       297.9449 Press    =       351.8826 
f_APR    =       191.0868 c_born[1] =    884228.6420 f_CB[1]  =    886896.8389 
c_born[12] =    175987.6494 f_CB[12] =    175718.2858 c_born[4] =    348892.8691 
f_CB[4]  =    348347.3092
------------ Step          12100 ----- CPU =     3726.979 (sec) -------------
Step     =          12100 Temp     =       296.6856 Press    =      -536.8000 
f_APR    =       188.9723 c_born[1] =    895567.8597 f_CB[1]  =    886929.4545 
c_born[12] =    172311.3592 f_CB[12] =    175695.1113 c_born[4] =    344366.0268 
f_CB[4]  =    348326.2959
------------ Step          12200 ----- CPU =     3756.601 (sec) -------------
Step     =          12200 Temp     =       294.0159 Press    =      1580.8094 
f_APR    =       194.5028 c_born[1] =    890149.7541 f_CB[1]  =    886983.6170 
c_born[12] =    174011.8192 f_CB[12] =    175659.1111 c_born[4] =    347429.9848 
f_CB[4]  =    348291.9714
------------ Step          12300 ----- CPU =     3786.843 (sec) -------------
Step     =          12300 Temp     =       301.5897 Press    =      -184.6863 
f_APR    =       196.2471 c_born[1] =    889167.7337 f_CB[1]  =    886972.9315 
c_born[12] =    174805.9509 f_CB[12] =    175643.9093 c_born[4] =    347443.5275 
f_CB[4]  =    348282.8856
------------ Step          12400 ----- CPU =     3817.037 (sec) -------------
Step     =          12400 Temp     =       304.6795 Press    =        33.4566 
f_APR    =       196.9972 c_born[1] =    889353.6925 f_CB[1]  =    886988.6397 
c_born[12] =    176562.7192 f_CB[12] =    175651.4819 c_born[4] =    350001.5985 
f_CB[4]  =    348292.5627
------------ Step          12500 ----- CPU =     3846.212 (sec) -------------
Step     =          12500 Temp     =       309.4216 Press    =      2045.1152 
f_APR    =       201.4538 c_born[1] =    890639.7835 f_CB[1]  =    886998.0296 
c_born[12] =    176924.3586 f_CB[12] =    175660.5075 c_born[4] =    349004.1664 
f_CB[4]  =    348302.8083
------------ Step          12600 ----- CPU =     3875.843 (sec) -------------
Step     =          12600 Temp     =       297.9784 Press    =      -546.3191 
f_APR    =       203.9378 c_born[1] =    880651.1052 f_CB[1]  =    886971.4898 
c_born[12] =    177204.9672 f_CB[12] =    175672.4053 c_born[4] =    350656.4858 
f_CB[4]  =    348317.6413
------------ Step          12700 ----- CPU =     3905.585 (sec) -------------
Step     =          12700 Temp     =       303.8303 Press    =       935.0035 
f_APR    =       204.7607 c_born[1] =    879929.0239 f_CB[1]  =    886947.5754 
c_born[12] =    175875.6197 f_CB[12] =    175681.7300 c_born[4] =    349320.8203 
f_CB[4]  =    348329.3161
------------ Step          12800 ----- CPU =     3935.578 (sec) -------------
Step     =          12800 Temp     =       296.6404 Press    =       898.7352 
f_APR    =       204.7492 c_born[1] =    887885.4082 f_CB[1]  =    886935.9778 
c_born[12] =    176250.4656 f_CB[12] =    175692.4480 c_born[4] =    348662.8039 
f_CB[4]  =    348341.4747
------------ Step          12900 ----- CPU =     3965.113 (sec) -------------
Step     =          12900 Temp     =       304.8643 Press    =      1196.3129 
f_APR    =       212.5365 c_born[1] =    880042.9599 f_CB[1]  =    886917.0749 
c_born[12] =    177895.0381 f_CB[12] =    175710.2373 c_born[4] =    351192.6060 
f_CB[4]  =    348362.6021
------------ Step          13000 ----- CPU =     3994.358 (sec) -------------
Step     =          13000 Temp     =       298.9132 Press    =      1289.2605 
f_APR    =       215.4776 c_born[1] =    879846.4576 f_CB[1]  =    886895.4844 
c_born[12] =    175000.8789 f_CB[12] =    175724.1477 c_born[4] =    348285.2539 
f_CB[4]  =    348376.4846
------------ Step          13100 ----- CPU =     4023.657 (sec) -------------
Step     =          13100 Temp     =       295.5808 Press    =      -293.7280 
f_APR    =       211.9052 c_born[1] =    888276.4179 f_CB[1]  =    886870.9066 
c_born[12] =    178171.1846 f_CB[12] =    175725.9390 c_born[4] =    351233.9964 
f_CB[4]  =    348379.8241
------------ Step          13200 ----- CPU =      4053.09 (sec) -------------
Step     =          13200 Temp     =       295.3875 Press    =      -561.7645 
f_APR    =       203.6764 c_born[1] =    890323.9880 f_CB[1]  =    886873.6296 
c_born[12] =    177062.4399 f_CB[12] =    175733.8478 c_born[4] =    348964.6267 
f_CB[4]  =    348387.2958
------------ Step          13300 ----- CPU =     4082.758 (sec) -------------
Step     =          13300 Temp     =       303.0359 Press    =      2460.7238 
f_APR    =       208.0091 c_born[1] =    892267.8885 f_CB[1]  =    886867.5524 
c_born[12] =    176006.0950 f_CB[12] =    175740.1576 c_born[4] =    347564.1604 
f_CB[4]  =    348392.3744
------------ Step          13400 ----- CPU =     4112.606 (sec) -------------
Step     =          13400 Temp     =       304.8927 Press    =       693.9904 
f_APR    =       211.8971 c_born[1] =    879223.1819 f_CB[1]  =    886857.9928 
c_born[12] =    178296.9743 f_CB[12] =    175760.8353 c_born[4] =    351822.8700 
f_CB[4]  =    348411.2076
------------ Step          13500 ----- CPU =      4142.26 (sec) -------------
Step     =          13500 Temp     =       307.0812 Press    =      -122.2590 
f_APR    =       209.2836 c_born[1] =    892969.7774 f_CB[1]  =    886885.9786 
c_born[12] =    178188.2588 f_CB[12] =    175778.9558 c_born[4] =    349607.4709 
f_CB[4]  =    348426.6926
------------ Step          13600 ----- CPU =     4172.703 (sec) -------------
Step     =          13600 Temp     =       300.1427 Press    =      1441.5539 
f_APR    =       215.5354 c_born[1] =    889016.6169 f_CB[1]  =    886925.9262 
c_born[12] =    178728.4329 f_CB[12] =    175801.6976 c_born[4] =    350760.3039 
f_CB[4]  =    348442.4822
------------ Step          13700 ----- CPU =     4202.228 (sec) -------------
Step     =          13700 Temp     =       299.4762 Press    =     -1382.4845 
f_APR    =       216.5967 c_born[1] =    885840.5850 f_CB[1]  =    886935.0453 
c_born[12] =    179956.7129 f_CB[12] =    175821.9765 c_born[4] =    353024.9054 
f_CB[4]  =    348461.9871
------------ Step          13800 ----- CPU =     4231.404 (sec) -------------
Step     =          13800 Temp     =       299.2838 Press    =     -1604.3826 
f_APR    =       219.0207 c_born[1] =    882794.6302 f_CB[1]  =    886917.0874 
c_born[12] =    180611.9714 f_CB[12] =    175841.9094 c_born[4] =    353482.9220 
f_CB[4]  =    348482.2103
------------ Step          13900 ----- CPU =     4260.613 (sec) -------------
Step     =          13900 Temp     =       294.8358 Press    =       -73.8055 
f_APR    =       213.3339 c_born[1] =    880671.6241 f_CB[1]  =    886901.0544 
c_born[12] =    176141.0017 f_CB[12] =    175850.4119 c_born[4] =    348878.5007 
f_CB[4]  =    348487.2110
------------ Step          14000 ----- CPU =     4289.709 (sec) -------------
Step     =          14000 Temp     =       305.0190 Press    =      -421.4700 
f_APR    =       210.3560 c_born[1] =    880249.1366 f_CB[1]  =    886871.6610 
c_born[12] =    175615.9490 f_CB[12] =    175850.1136 c_born[4] =    348376.6436 
f_CB[4]  =    348486.5109
------------ Step          14100 ----- CPU =     4318.794 (sec) -------------
Step     =          14100 Temp     =       305.6184 Press    =       482.0275 
f_APR    =       215.4519 c_born[1] =    885826.3847 f_CB[1]  =    886849.8091 
c_born[12] =    174264.0254 f_CB[12] =    175841.7906 c_born[4] =    346590.0111 
f_CB[4]  =    348477.8994
------------ Step          14200 ----- CPU =     4347.946 (sec) -------------
Step     =          14200 Temp     =       303.8906 Press    =      1772.1056 
f_APR    =       217.0747 c_born[1] =    878527.5138 f_CB[1]  =    886829.0109 
c_born[12] =    176491.0656 f_CB[12] =    175836.7619 c_born[4] =    350181.1204 
f_CB[4]  =    348473.2203
------------ Step          14300 ----- CPU =     4377.059 (sec) -------------
Step     =          14300 Temp     =       295.1490 Press    =       522.6632 
f_APR    =       210.8577 c_born[1] =    891350.2748 f_CB[1]  =    886852.1811 
c_born[12] =    170916.7917 f_CB[12] =    175817.6510 c_born[4] =    341671.2608 
f_CB[4]  =    348447.7515
------------ Step          14400 ----- CPU =     4406.761 (sec) -------------
Step     =          14400 Temp     =       293.5147 Press    =      -190.3738 
f_APR    =       211.1650 c_born[1] =    882803.5245 f_CB[1]  =    886838.3451 
c_born[12] =    173007.8965 f_CB[12] =    175788.6267 c_born[4] =    345229.0327 
f_CB[4]  =    348415.6406
------------ Step          14500 ----- CPU =     4436.074 (sec) -------------
Step     =          14500 Temp     =       289.2126 Press    =       566.2903 
f_APR    =       197.2395 c_born[1] =    879536.6312 f_CB[1]  =    886799.6800 
c_born[12] =    174507.0857 f_CB[12] =    175782.8191 c_born[4] =    347351.4379 
f_CB[4]  =    348411.5059
------------ Step          14600 ----- CPU =     4465.619 (sec) -------------
Step     =          14600 Temp     =       293.7727 Press    =      1735.3365 
f_APR    =       193.5094 c_born[1] =    884399.2520 f_CB[1]  =    886772.8593 
c_born[12] =    175080.0399 f_CB[12] =    175774.1374 c_born[4] =    348803.8139 
f_CB[4]  =    348406.9937
------------ Step          14700 ----- CPU =     4494.845 (sec) -------------
Step     =          14700 Temp     =       296.8856 Press    =       237.2852 
f_APR    =       202.2147 c_born[1] =    887739.0800 f_CB[1]  =    886773.5248 
c_born[12] =    175062.8215 f_CB[12] =    175769.6066 c_born[4] =    347576.9265 
f_CB[4]  =    348403.1992
------------ Step          14800 ----- CPU =     4524.427 (sec) -------------
Step     =          14800 Temp     =       302.8548 Press    =      -184.5822 
f_APR    =       201.5705 c_born[1] =    889351.2611 f_CB[1]  =    886782.1686 
c_born[12] =    173106.2804 f_CB[12] =    175756.1111 c_born[4] =    344914.5434 
f_CB[4]  =    348389.1168
------------ Step          14900 ----- CPU =     4553.911 (sec) -------------
Step     =          14900 Temp     =       304.5518 Press    =      -836.7891 
f_APR    =       199.2096 c_born[1] =    884835.4086 f_CB[1]  =    886753.0292 
c_born[12] =    174159.9153 f_CB[12] =    175744.4671 c_born[4] =    346741.6872 
f_CB[4]  =    348380.4486
------------ Step          15000 ----- CPU =     4583.649 (sec) -------------
Step     =          15000 Temp     =       301.0851 Press    =      1348.8160 
f_APR    =       199.7735 c_born[1] =    884683.8809 f_CB[1]  =    886725.2949 
c_born[12] =    173907.1669 f_CB[12] =    175744.7726 c_born[4] =    347124.1897 
f_CB[4]  =    348383.6401
------------ Step          15100 ----- CPU =     4612.866 (sec) -------------
Step     =          15100 Temp     =       290.8807 Press    =      1535.5809 
f_APR    =       196.8948 c_born[1] =    896665.1220 f_CB[1]  =    886735.8124 
c_born[12] =    175969.8056 f_CB[12] =    175746.8115 c_born[4] =    347501.3069 
f_CB[4]  =    348385.3113
------------ Step          15200 ----- CPU =     4642.398 (sec) -------------
Step     =          15200 Temp     =       293.2405 Press    =      2461.7484 
f_APR    =       202.5418 c_born[1] =    893189.4040 f_CB[1]  =    886779.7318 
c_born[12] =    174595.6777 f_CB[12] =    175738.3408 c_born[4] =    346968.9783 
f_CB[4]  =    348370.8346
------------ Step          15300 ----- CPU =     4672.655 (sec) -------------
Step     =          15300 Temp     =       301.8827 Press    =      1264.3202 
f_APR    =       203.6786 c_born[1] =    890954.7580 f_CB[1]  =    886804.3385 
c_born[12] =    176534.6508 f_CB[12] =    175740.4367 c_born[4] =    347821.2540 
f_CB[4]  =    348366.4692
------------ Step          15400 ----- CPU =     4701.703 (sec) -------------
Step     =          15400 Temp     =       299.0918 Press    =       164.9168 
f_APR    =       204.4877 c_born[1] =    890172.4919 f_CB[1]  =    886829.6545 
c_born[12] =    175561.1241 f_CB[12] =    175747.7737 c_born[4] =    347503.9481 
f_CB[4]  =    348367.9026
------------ Step          15500 ----- CPU =     4731.629 (sec) -------------
Step     =          15500 Temp     =       308.7221 Press    =      -151.7940 
f_APR    =       205.9837 c_born[1] =    887770.0853 f_CB[1]  =    886860.8712 
c_born[12] =    174831.6972 f_CB[12] =    175751.5113 c_born[4] =    347548.7135 
f_CB[4]  =    348367.3905
------------ Step          15600 ----- CPU =     4760.829 (sec) -------------
Step     =          15600 Temp     =       302.8603 Press    =       -53.3353 
f_APR    =       204.9195 c_born[1] =    887696.8538 f_CB[1]  =    886856.2928 
c_born[12] =    176554.7052 f_CB[12] =    175742.5653 c_born[4] =    349078.5146 
f_CB[4]  =    348359.7202
------------ Step          15700 ----- CPU =     4790.856 (sec) -------------
Step     =          15700 Temp     =       300.5563 Press    =     -1501.2241 
f_APR    =       202.6105 c_born[1] =    886726.4879 f_CB[1]  =    886855.4256 
c_born[12] =    175545.6789 f_CB[12] =    175736.9165 c_born[4] =    347141.5466 
f_CB[4]  =    348352.8139
------------ Step          15800 ----- CPU =     4820.171 (sec) -------------
Step     =          15800 Temp     =       289.6809 Press    =       445.1666 
f_APR    =       205.4620 c_born[1] =    886896.5505 f_CB[1]  =    886856.8573 
c_born[12] =    172955.5355 f_CB[12] =    175727.0506 c_born[4] =    345637.3395 
f_CB[4]  =    348340.6596
------------ Step          15900 ----- CPU =     4849.454 (sec) -------------
Step     =          15900 Temp     =       294.5847 Press    =       649.4588 
f_APR    =       207.8881 c_born[1] =    883381.0248 f_CB[1]  =    886847.3093 
c_born[12] =    172655.4972 f_CB[12] =    175705.7324 c_born[4] =    344731.9372 
f_CB[4]  =    348318.1625
------------ Step          16000 ----- CPU =     4878.728 (sec) -------------
Step     =          16000 Temp     =       303.5020 Press    =      1058.9847 
f_APR    =       206.0206 c_born[1] =    893736.9049 f_CB[1]  =    886863.5741 
c_born[12] =    174709.6208 f_CB[12] =    175693.5586 c_born[4] =    346973.1751 
f_CB[4]  =    348303.3075
------------ Step          16100 ----- CPU =      4907.57 (sec) -------------
Step     =          16100 Temp     =       305.4455 Press    =      -475.4461 
f_APR    =       209.4897 c_born[1] =    898699.1061 f_CB[1]  =    886923.4018 
c_born[12] =    176112.6286 f_CB[12] =    175684.6600 c_born[4] =    347331.0027 
f_CB[4]  =    348289.0648
------------ Step          16200 ----- CPU =     4938.445 (sec) -------------
Step     =          16200 Temp     =       302.7868 Press    =       369.0137 
f_APR    =       208.8190 c_born[1] =    885892.2387 f_CB[1]  =    886956.6835 
c_born[12] =    175968.3659 f_CB[12] =    175692.2012 c_born[4] =    348736.5176 
f_CB[4]  =    348294.5692
------------ Step          16300 ----- CPU =     4967.799 (sec) -------------
Step     =          16300 Temp     =       296.3145 Press    =      -726.9998 
f_APR    =       211.4961 c_born[1] =    889674.5508 f_CB[1]  =    886963.9704 
c_born[12] =    174665.8597 f_CB[12] =    175684.8502 c_born[4] =    347364.5300 
f_CB[4]  =    348286.4405
------------ Step          16400 ----- CPU =     4997.236 (sec) -------------
Step     =          16400 Temp     =       295.1105 Press    =     -1500.3786 
f_APR    =       204.4334 c_born[1] =    885202.6330 f_CB[1]  =    886986.7769 
c_born[12] =    173785.1960 f_CB[12] =    175672.7855 c_born[4] =    346064.8937 
f_CB[4]  =    348271.5095
------------ Step          16500 ----- CPU =     5026.256 (sec) -------------
Step     =          16500 Temp     =       298.3929 Press    =      4668.5003 
f_APR    =       205.2424 c_born[1] =    888449.7480 f_CB[1]  =    887010.5120 
c_born[12] =    172634.5804 f_CB[12] =    175660.3762 c_born[4] =    344945.3941 
f_CB[4]  =    348254.0539
------------ Step          16600 ----- CPU =     5056.287 (sec) -------------
Step     =          16600 Temp     =       295.5998 Press    =      1186.3891 
f_APR    =       210.6682 c_born[1] =    886965.0221 f_CB[1]  =    887017.0293 
c_born[12] =    171054.5473 f_CB[12] =    175646.0836 c_born[4] =    343381.2977 
f_CB[4]  =    348238.9774
------------ Step          16700 ----- CPU =     5085.489 (sec) -------------
Step     =          16700 Temp     =       298.4059 Press    =     -1034.8551 
f_APR    =       207.4101 c_born[1] =    896921.2925 f_CB[1]  =    887032.6254 
c_born[12] =    173701.8922 f_CB[12] =    175628.2258 c_born[4] =    344725.6473 
f_CB[4]  =    348216.9813
------------ Step          16800 ----- CPU =      5114.68 (sec) -------------
Step     =          16800 Temp     =       305.3697 Press    =      -271.2966 
f_APR    =       213.0638 c_born[1] =    896618.8593 f_CB[1]  =    887108.6937 
c_born[12] =    173910.4244 f_CB[12] =    175614.1497 c_born[4] =    346047.2284 
f_CB[4]  =    348194.7045
------------ Step          16900 ----- CPU =     5144.565 (sec) -------------
Step     =          16900 Temp     =       295.7921 Press    =      -539.0973 
f_APR    =       216.1636 c_born[1] =    889339.8791 f_CB[1]  =    887141.2193 
c_born[12] =    173918.6328 f_CB[12] =    175602.5406 c_born[4] =    346443.9126 
f_CB[4]  =    348181.8689
------------ Step          17000 ----- CPU =     5174.054 (sec) -------------
Step     =          17000 Temp     =       294.4211 Press    =     -1387.3250 
f_APR    =       210.9230 c_born[1] =    882133.5893 f_CB[1]  =    887117.6250 
c_born[12] =    175284.0100 f_CB[12] =    175591.6473 c_born[4] =    348673.7421 
f_CB[4]  =    348173.7663
------------ Step          17100 ----- CPU =     5203.051 (sec) -------------
Step     =          17100 Temp     =       302.4288 Press    =       864.7634 
f_APR    =       209.0627 c_born[1] =    892934.7875 f_CB[1]  =    887086.2008 
c_born[12] =    170150.4016 f_CB[12] =    175577.3286 c_born[4] =    342011.2280 
f_CB[4]  =    348163.0674
------------ Step          17200 ----- CPU =     5231.778 (sec) -------------
Step     =          17200 Temp     =       295.9340 Press    =      1255.2215 
f_APR    =       213.8301 c_born[1] =    893529.2322 f_CB[1]  =    887119.7739 
c_born[12] =    175778.9083 f_CB[12] =    175567.8335 c_born[4] =    347169.6615 
f_CB[4]  =    348148.7723
------------ Step          17300 ----- CPU =      5261.61 (sec) -------------
Step     =          17300 Temp     =       300.3746 Press    =      1769.4372 
f_APR    =       218.6544 c_born[1] =    890479.9082 f_CB[1]  =    887117.3809 
c_born[12] =    174622.7280 f_CB[12] =    175565.9690 c_born[4] =    346274.0354 
f_CB[4]  =    348144.8528
------------ Step          17400 ----- CPU =     5290.392 (sec) -------------
Step     =          17400 Temp     =       299.9729 Press    =      -208.3477 
f_APR    =       220.5512 c_born[1] =    892576.6844 f_CB[1]  =    887123.3837 
c_born[12] =    174952.7383 f_CB[12] =    175556.7918 c_born[4] =    346359.1434 
f_CB[4]  =    348131.2605
------------ Step          17500 ----- CPU =     5319.684 (sec) -------------
Step     =          17500 Temp     =       295.8256 Press    =      -572.6716 
f_APR    =       222.2846 c_born[1] =    879244.7642 f_CB[1]  =    887119.7655 
c_born[12] =    174994.6043 f_CB[12] =    175557.1523 c_born[4] =    347348.1007 
f_CB[4]  =    348129.0770
------------ Step          17600 ----- CPU =     5348.901 (sec) -------------
Step     =          17600 Temp     =       302.3182 Press    =       -23.0179 
f_APR    =       219.9891 c_born[1] =    889000.2197 f_CB[1]  =    887104.4378 
c_born[12] =    174485.9794 f_CB[12] =    175560.5306 c_born[4] =    347096.0311 
f_CB[4]  =    348132.1531
------------ Step          17700 ----- CPU =     5381.146 (sec) -------------
Step     =          17700 Temp     =       300.3418 Press    =      1085.7747 
f_APR    =       220.4261 c_born[1] =    887857.7642 f_CB[1]  =    887129.9266 
c_born[12] =    177031.3521 f_CB[12] =    175555.6763 c_born[4] =    348993.6017 
f_CB[4]  =    348121.7778
------------ Step          17800 ----- CPU =     5411.299 (sec) -------------
Step     =          17800 Temp     =       299.3568 Press    =      2089.5463 
f_APR    =       223.6292 c_born[1] =    881520.4970 f_CB[1]  =    887147.3395 
c_born[12] =    175002.1661 f_CB[12] =    175555.7089 c_born[4] =    347734.8213 
f_CB[4]  =    348117.4857
------------ Step          17900 ----- CPU =     5440.779 (sec) -------------
Step     =          17900 Temp     =       295.0613 Press    =      2245.6470 
f_APR    =       229.3699 c_born[1] =    884912.4806 f_CB[1]  =    887112.1659 
c_born[12] =    173661.9409 f_CB[12] =    175550.6026 c_born[4] =    345818.4094 
f_CB[4]  =    348113.4351
------------ Step          18000 ----- CPU =     5469.815 (sec) -------------
Step     =          18000 Temp     =       307.7225 Press    =       780.2738 
f_APR    =       225.3172 c_born[1] =    883147.2299 f_CB[1]  =    887124.1296 
c_born[12] =    171316.5641 f_CB[12] =    175537.4047 c_born[4] =    343899.7456 
f_CB[4]  =    348097.5970
------------ Step          18100 ----- CPU =     5499.443 (sec) -------------
Step     =          18100 Temp     =       305.8596 Press    =      2372.3432 
f_APR    =       226.4798 c_born[1] =    893614.9275 f_CB[1]  =    887128.2410 
c_born[12] =    172196.6744 f_CB[12] =    175521.6921 c_born[4] =    344671.6076 
f_CB[4]  =    348080.3495
------------ Step          18200 ----- CPU =     5530.399 (sec) -------------
Step     =          18200 Temp     =       300.8846 Press    =      2160.1569 
f_APR    =       229.6457 c_born[1] =    895422.6592 f_CB[1]  =    887139.2554 
c_born[12] =    173096.3963 f_CB[12] =    175508.3282 c_born[4] =    343995.9853 
f_CB[4]  =    348062.8141
------------ Step          18300 ----- CPU =      5560.07 (sec) -------------
Step     =          18300 Temp     =       296.6709 Press    =       504.8338 
f_APR    =       227.5529 c_born[1] =    883896.0580 f_CB[1]  =    887153.8736 
c_born[12] =    173584.6178 f_CB[12] =    175496.7478 c_born[4] =    346395.7306 
f_CB[4]  =    348046.2005
------------ Step          18400 ----- CPU =      5590.36 (sec) -------------
Step     =          18400 Temp     =       300.1550 Press    =      2631.1810 
f_APR    =       228.3616 c_born[1] =    886898.1169 f_CB[1]  =    887156.2251 
c_born[12] =    177716.4178 f_CB[12] =    175494.5866 c_born[4] =    350239.6589 
f_CB[4]  =    348040.9887
------------ Step          18500 ----- CPU =     5619.788 (sec) -------------
Step     =          18500 Temp     =       301.8338 Press    =      1961.2726 
f_APR    =       232.1094 c_born[1] =    887645.1706 f_CB[1]  =    887165.0260 
c_born[12] =    176474.3098 f_CB[12] =    175497.1220 c_born[4] =    347977.3285 
f_CB[4]  =    348040.6303
------------ Step          18600 ----- CPU =      5649.96 (sec) -------------
Step     =          18600 Temp     =       302.6635 Press    =      1755.4658 
f_APR    =       233.3367 c_born[1] =    885866.7488 f_CB[1]  =    887139.8284 
c_born[12] =    174757.7731 f_CB[12] =    175498.9690 c_born[4] =    346985.0162 
f_CB[4]  =    348042.1359
------------ Step          18700 ----- CPU =     5681.668 (sec) -------------
Step     =          18700 Temp     =       300.6353 Press    =      1061.0863 
f_APR    =       235.7952 c_born[1] =    899390.5857 f_CB[1]  =    887156.6655 
c_born[12] =    171346.4768 f_CB[12] =    175489.0465 c_born[4] =    342340.9712 
f_CB[4]  =    348030.9047
------------ Step          18800 ----- CPU =     5713.909 (sec) -------------
Step     =          18800 Temp     =       298.5067 Press    =      -639.6056 
f_APR    =       237.7752 c_born[1] =    888269.4915 f_CB[1]  =    887185.2031 
c_born[12] =    173000.9126 f_CB[12] =    175479.6089 c_born[4] =    345196.5374 
f_CB[4]  =    348019.5563
------------ Step          18900 ----- CPU =      5754.23 (sec) -------------
Step     =          18900 Temp     =       302.2652 Press    =       902.5063 
f_APR    =       240.1650 c_born[1] =    894984.3915 f_CB[1]  =    887203.6598 
c_born[12] =    174526.4353 f_CB[12] =    175466.8461 c_born[4] =    346188.6452 
f_CB[4]  =    348004.7491
------------ Step          19000 ----- CPU =     5797.679 (sec) -------------
Step     =          19000 Temp     =       300.0446 Press    =       374.2377 
f_APR    =       241.9858 c_born[1] =    892600.2848 f_CB[1]  =    887197.6708 
c_born[12] =    174772.4040 f_CB[12] =    175462.3313 c_born[4] =    347074.4818 
f_CB[4]  =    348002.3202
------------ Step          19100 ----- CPU =     5836.637 (sec) -------------
Step     =          19100 Temp     =       302.6682 Press    =     -1693.4003 
f_APR    =       239.8539 c_born[1] =    889886.6383 f_CB[1]  =    887197.5818 
c_born[12] =    172979.5572 f_CB[12] =    175445.8955 c_born[4] =    346000.6747 
f_CB[4]  =    347987.6906
------------ Step          19200 ----- CPU =     5874.411 (sec) -------------
Step     =          19200 Temp     =       302.4163 Press    =       -48.6694 
f_APR    =       241.6246 c_born[1] =    885525.2262 f_CB[1]  =    887200.9496 
c_born[12] =    173622.2085 f_CB[12] =    175433.1967 c_born[4] =    347235.7530 
f_CB[4]  =    347977.9746
------------ Step          19300 ----- CPU =     5916.834 (sec) -------------
Step     =          19300 Temp     =       308.0657 Press    =       929.7759 
f_APR    =       244.2106 c_born[1] =    887588.6255 f_CB[1]  =    887182.4907 
c_born[12] =    177531.8543 f_CB[12] =    175429.8316 c_born[4] =    350487.6826 
f_CB[4]  =    347978.0992
------------ Step          19400 ----- CPU =     5958.891 (sec) -------------
Step     =          19400 Temp     =       301.1756 Press    =      1413.3583 
f_APR    =       246.3134 c_born[1] =    887199.0987 f_CB[1]  =    887181.3926 
c_born[12] =    174136.4292 f_CB[12] =    175429.0706 c_born[4] =    347411.5715 
f_CB[4]  =    347980.0926
------------ Step          19500 ----- CPU =     5997.092 (sec) -------------
Step     =          19500 Temp     =       298.2395 Press    =      1480.5442 
f_APR    =       247.1157 c_born[1] =    894574.8277 f_CB[1]  =    887210.9767 
c_born[12] =    172398.0677 f_CB[12] =    175418.4229 c_born[4] =    344622.3465 
f_CB[4]  =    347970.3190
------------ Step          19600 ----- CPU =     6044.714 (sec) -------------
Step     =          19600 Temp     =       297.7789 Press    =       581.2832 
f_APR    =       249.3955 c_born[1] =    876734.8409 f_CB[1]  =    887187.8134 
c_born[12] =    174579.7185 f_CB[12] =    175418.5148 c_born[4] =    347573.3905 
f_CB[4]  =    347973.6314
------------ Step          19700 ----- CPU =     6087.968 (sec) -------------
Step     =          19700 Temp     =       299.3237 Press    =      1940.6675 
f_APR    =       255.3806 c_born[1] =    882482.0827 f_CB[1]  =    887169.7558 
c_born[12] =    174683.7568 f_CB[12] =    175418.7873 c_born[4] =    347900.8909 
f_CB[4]  =    347974.9205
------------ Step          19800 ----- CPU =     6135.406 (sec) -------------
Step     =          19800 Temp     =       300.4067 Press    =      1056.4533 
f_APR    =       257.0276 c_born[1] =    880409.0977 f_CB[1]  =    887173.7839 
c_born[12] =    172821.3149 f_CB[12] =    175409.8414 c_born[4] =    346085.1078 
f_CB[4]  =    347966.4931
------------ Step          19900 ----- CPU =     6178.458 (sec) -------------
Step     =          19900 Temp     =       303.1472 Press    =      1777.7545 
f_APR    =       256.3737 c_born[1] =    881282.4298 f_CB[1]  =    887119.6050 
c_born[12] =    173132.5088 f_CB[12] =    175402.2043 c_born[4] =    345714.5816 
f_CB[4]  =    347961.8246
------------ Step          20000 ----- CPU =     6214.933 (sec) -------------
Step     =          20000 Temp     =       308.2391 Press    =      2555.8232 
f_APR    =       263.5519 c_born[1] =    885503.1503 f_CB[1]  =    887118.4850 
c_born[12] =    175541.8233 f_CB[12] =    175398.8734 c_born[4] =    348027.3418 
f_CB[4]  =    347958.0326
------------ Step          20100 ----- CPU =       6248.1 (sec) -------------
Step     =          20100 Temp     =       301.5616 Press    =       754.0738 
f_APR    =       267.1295 c_born[1] =    893594.9897 f_CB[1]  =    887107.1405 
c_born[12] =    174894.5160 f_CB[12] =    175400.8972 c_born[4] =    346156.5845 
f_CB[4]  =    347959.0368
------------ Step          20200 ----- CPU =     6283.482 (sec) -------------
Step     =          20200 Temp     =       303.4121 Press    =      2504.8305 
f_APR    =       270.5319 c_born[1] =    882637.5650 f_CB[1]  =    887104.4673 
c_born[12] =    175468.7517 f_CB[12] =    175400.8131 c_born[4] =    348845.4880 
f_CB[4]  =    347956.9391
------------ Step          20300 ----- CPU =     6317.544 (sec) -------------
Step     =          20300 Temp     =       298.9137 Press    =       907.3513 
f_APR    =       273.3736 c_born[1] =    879934.5582 f_CB[1]  =    887074.0277 
c_born[12] =    176788.5444 f_CB[12] =    175399.7079 c_born[4] =    350125.3309 
f_CB[4]  =    347960.2129
------------ Step          20400 ----- CPU =     6352.109 (sec) -------------
Step     =          20400 Temp     =       305.7565 Press    =      -848.1482 
f_APR    =       271.9064 c_born[1] =    883475.0753 f_CB[1]  =    887058.5387 
c_born[12] =    176836.8216 f_CB[12] =    175404.2801 c_born[4] =    349390.0579 
f_CB[4]  =    347966.2617
------------ Step          20500 ----- CPU =     6384.207 (sec) -------------
Step     =          20500 Temp     =       300.9674 Press    =       544.2032 
f_APR    =       268.7974 c_born[1] =    884259.1348 f_CB[1]  =    887030.0875 
c_born[12] =    178137.5718 f_CB[12] =    175411.2147 c_born[4] =    350613.6554 
f_CB[4]  =    347974.7455
------------ Step          20600 ----- CPU =     6415.221 (sec) -------------
Step     =          20600 Temp     =       310.5035 Press    =      2215.3729 
f_APR    =       273.1150 c_born[1] =    890751.8358 f_CB[1]  =    887043.4841 
c_born[12] =    176630.5974 f_CB[12] =    175416.7685 c_born[4] =    349348.3903 
f_CB[4]  =    347978.8223
------------ Step          20700 ----- CPU =     6445.875 (sec) -------------
Step     =          20700 Temp     =       303.6340 Press    =       249.1038 
f_APR    =       273.5925 c_born[1] =    885645.8622 f_CB[1]  =    887046.3157 
c_born[12] =    174397.9320 f_CB[12] =    175413.5454 c_born[4] =    346524.3715 
f_CB[4]  =    347975.7250
------------ Step          20800 ----- CPU =     6482.372 (sec) -------------
Step     =          20800 Temp     =       297.8312 Press    =       189.8599 
f_APR    =       275.1176 c_born[1] =    879182.3284 f_CB[1]  =    887019.9233 
c_born[12] =    177672.8410 f_CB[12] =    175413.4982 c_born[4] =    350964.4436 
f_CB[4]  =    347978.1518
------------ Step          20900 ----- CPU =     6520.772 (sec) -------------
Step     =          20900 Temp     =       299.9775 Press    =       528.4314 
f_APR    =       277.6765 c_born[1] =    883075.7551 f_CB[1]  =    887026.8418 
c_born[12] =    176891.0626 f_CB[12] =    175419.0376 c_born[4] =    350508.9142 
f_CB[4]  =    347983.6280
------------ Step          21000 ----- CPU =     6559.052 (sec) -------------
Step     =          21000 Temp     =       302.6191 Press    =     -1066.1391 
f_APR    =       274.9974 c_born[1] =    892858.6802 f_CB[1]  =    887021.5467 
c_born[12] =    176339.4043 f_CB[12] =    175420.0772 c_born[4] =    348348.0168 
f_CB[4]  =    347986.1857
------------ Step          21100 ----- CPU =     6595.123 (sec) -------------
Step     =          21100 Temp     =       295.7957 Press    =       -26.1869 
f_APR    =       274.2690 c_born[1] =    885619.1739 f_CB[1]  =    887040.2700 
c_born[12] =    173534.4177 f_CB[12] =    175421.2379 c_born[4] =    346321.6929 
f_CB[4]  =    347983.2481
------------ Step          21200 ----- CPU =     6636.423 (sec) -------------
Step     =          21200 Temp     =       301.4824 Press    =     -1602.7219 
f_APR    =       269.6672 c_born[1] =    883067.4468 f_CB[1]  =    887007.2297 
c_born[12] =    177576.9441 f_CB[12] =    175426.9063 c_born[4] =    350831.1540 
f_CB[4]  =    347993.7646
------------ Step          21300 ----- CPU =     6678.771 (sec) -------------
Step     =          21300 Temp     =       302.3997 Press    =       318.7482 
f_APR    =       266.5419 c_born[1] =    892608.0683 f_CB[1]  =    887002.9540 
c_born[12] =    173229.2535 f_CB[12] =    175425.2394 c_born[4] =    345705.5842 
f_CB[4]  =    347993.2165
------------ Step          21400 ----- CPU =     6719.844 (sec) -------------
Step     =          21400 Temp     =       305.5459 Press    =      1623.1084 
f_APR    =       269.2380 c_born[1] =    885729.9382 f_CB[1]  =    887011.3882 
c_born[12] =    174955.7956 f_CB[12] =    175421.2971 c_born[4] =    347394.0933 
f_CB[4]  =    347988.9011
------------ Step          21500 ----- CPU =     6759.417 (sec) -------------
Step     =          21500 Temp     =       299.1617 Press    =      1510.1770 
f_APR    =       273.4698 c_born[1] =    886774.8077 f_CB[1]  =    887013.1614 
c_born[12] =    177124.3661 f_CB[12] =    175429.2711 c_born[4] =    350189.5969 
f_CB[4]  =    347998.8489
------------ Step          21600 ----- CPU =     6795.632 (sec) -------------
Step     =          21600 Temp     =       299.8506 Press    =      1121.0644 
f_APR    =       272.3183 c_born[1] =    889025.3869 f_CB[1]  =    887023.7282 
c_born[12] =    176162.1257 f_CB[12] =    175432.9405 c_born[4] =    349005.4855 
f_CB[4]  =    348002.3791
------------ Step          21700 ----- CPU =     6831.465 (sec) -------------
Step     =          21700 Temp     =       303.4948 Press    =        73.2989 
f_APR    =       272.2733 c_born[1] =    889678.1770 f_CB[1]  =    887037.3761 
c_born[12] =    174556.6061 f_CB[12] =    175437.2896 c_born[4] =    346704.1791 
f_CB[4]  =    348006.1662
------------ Step          21800 ----- CPU =     6872.953 (sec) -------------
Step     =          21800 Temp     =       305.6809 Press    =       516.6930 
f_APR    =       271.5591 c_born[1] =    883450.0552 f_CB[1]  =    887044.3559 
c_born[12] =    174887.7153 f_CB[12] =    175433.4972 c_born[4] =    347977.4808 
f_CB[4]  =    348003.7344
------------ Step          21900 ----- CPU =     6906.403 (sec) -------------
Step     =          21900 Temp     =       303.2351 Press    =       846.9208 
f_APR    =       268.0778 c_born[1] =    886167.6913 f_CB[1]  =    887039.1994 
[...]
f_APR    =       216.4649 c_born[1] =    884679.5826 f_CB[1]  =    885447.3128 
c_born[12] =    176175.8698 f_CB[12] =    174744.6814 c_born[4] =    348672.3203 
f_CB[4]  =    347531.7173
------------ Step          95400 ----- CPU =     31163.87 (sec) -------------
Step     =          95400 Temp     =       300.7497 Press    =     -1898.1630 
f_APR    =       216.3142 c_born[1] =    891380.0473 f_CB[1]  =    885452.6807 
c_born[12] =    173388.0372 f_CB[12] =    174744.0818 c_born[4] =    345230.8397 
f_CB[4]  =    347530.2824
------------ Step          95500 ----- CPU =     31193.44 (sec) -------------
Step     =          95500 Temp     =       295.8740 Press    =     -2391.0909 
f_APR    =       215.2540 c_born[1] =    887036.9150 f_CB[1]  =    885453.6077 
c_born[12] =    173527.3922 f_CB[12] =    174743.9976 c_born[4] =    346629.9688 
f_CB[4]  =    347530.0234
------------ Step          95600 ----- CPU =     31223.14 (sec) -------------
Step     =          95600 Temp     =       311.9641 Press    =     -1715.6282 
f_APR    =       216.4272 c_born[1] =    884601.5939 f_CB[1]  =    885457.1851 
c_born[12] =    176762.6455 f_CB[12] =    174744.7573 c_born[4] =    349519.0501 
f_CB[4]  =    347530.3639
------------ Step          95700 ----- CPU =     31252.78 (sec) -------------
Step     =          95700 Temp     =       295.3171 Press    =      1091.2132 
f_APR    =       215.8324 c_born[1] =    877429.0067 f_CB[1]  =    885449.8394 
c_born[12] =    172738.5283 f_CB[12] =    174746.1362 c_born[4] =    344926.0401 
f_CB[4]  =    347532.1205
------------ Step          95800 ----- CPU =     31282.14 (sec) -------------
Step     =          95800 Temp     =       298.8199 Press    =     -1442.6918 
f_APR    =       216.0362 c_born[1] =    881064.1668 f_CB[1]  =    885447.6827 
c_born[12] =    173303.0230 f_CB[12] =    174743.2828 c_born[4] =    346204.9707 
f_CB[4]  =    347528.4581
------------ Step          95900 ----- CPU =     31312.44 (sec) -------------
Step     =          95900 Temp     =       301.7179 Press    =      -488.1815 
f_APR    =       216.0280 c_born[1] =    886536.5180 f_CB[1]  =    885444.5573 
c_born[12] =    174554.8206 f_CB[12] =    174742.3649 c_born[4] =    347378.2260 
f_CB[4]  =    347527.5330
------------ Step          96000 ----- CPU =     31341.88 (sec) -------------
Step     =          96000 Temp     =       294.2075 Press    =       875.5451 
f_APR    =       216.3994 c_born[1] =    893945.6180 f_CB[1]  =    885449.5152 
c_born[12] =    173455.3943 f_CB[12] =    174741.9201 c_born[4] =    345203.7322 
f_CB[4]  =    347526.3666
------------ Step          96100 ----- CPU =     31370.77 (sec) -------------
Step     =          96100 Temp     =       301.3291 Press    =      -771.7795 
f_APR    =       216.7078 c_born[1] =    882681.8537 f_CB[1]  =    885450.3828 
c_born[12] =    176214.2698 f_CB[12] =    174742.5918 c_born[4] =    348592.1148 
f_CB[4]  =    347526.0356
------------ Step          96200 ----- CPU =     31400.61 (sec) -------------
Step     =          96200 Temp     =       306.3611 Press    =      2647.9095 
f_APR    =       216.8962 c_born[1] =    879738.0011 f_CB[1]  =    885450.6291 
c_born[12] =    175688.4787 f_CB[12] =    174741.6506 c_born[4] =    348630.7708 
f_CB[4]  =    347524.6818
------------ Step          96300 ----- CPU =     31430.53 (sec) -------------
Step     =          96300 Temp     =       296.4607 Press    =      2821.5767 
f_APR    =       217.1570 c_born[1] =    880097.3879 f_CB[1]  =    885446.6604 
c_born[12] =    177061.6138 f_CB[12] =    174742.9771 c_born[4] =    349456.6114 
f_CB[4]  =    347526.0796
------------ Step          96400 ----- CPU =     31461.43 (sec) -------------
Step     =          96400 Temp     =       295.0133 Press    =      1904.6539 
f_APR    =       218.1241 c_born[1] =    885848.5694 f_CB[1]  =    885445.3209 
c_born[12] =    174525.3787 f_CB[12] =    174742.6796 c_born[4] =    346333.0442 
f_CB[4]  =    347525.2082
------------ Step          96500 ----- CPU =     31491.42 (sec) -------------
Step     =          96500 Temp     =       301.3656 Press    =       265.2135 
f_APR    =       217.3773 c_born[1] =    877600.1681 f_CB[1]  =    885439.6643 
c_born[12] =    175101.1438 f_CB[12] =    174742.9938 c_born[4] =    348205.4823 
f_CB[4]  =    347525.5395
------------ Step          96600 ----- CPU =     31520.91 (sec) -------------
Step     =          96600 Temp     =       301.3760 Press    =      -709.8684 
f_APR    =       216.9385 c_born[1] =    883778.8194 f_CB[1]  =    885432.9421 
c_born[12] =    174984.7305 f_CB[12] =    174743.8705 c_born[4] =    346874.6213 
f_CB[4]  =    347526.4579
------------ Step          96700 ----- CPU =     31550.41 (sec) -------------
Step     =          96700 Temp     =       307.6235 Press    =      -178.4494 
f_APR    =       217.0135 c_born[1] =    891823.1786 f_CB[1]  =    885434.4571 
c_born[12] =    175222.8832 f_CB[12] =    174744.1617 c_born[4] =    346776.1811 
f_CB[4]  =    347525.8057
------------ Step          96800 ----- CPU =     31581.04 (sec) -------------
Step     =          96800 Temp     =       303.9158 Press    =       594.8725 
f_APR    =       217.6178 c_born[1] =    897073.9335 f_CB[1]  =    885442.7285 
c_born[12] =    176833.9629 f_CB[12] =    174745.7592 c_born[4] =    348184.3694 
f_CB[4]  =    347526.3622
------------ Step          96900 ----- CPU =     31611.06 (sec) -------------
Step     =          96900 Temp     =       301.6701 Press    =     -1443.9667 
f_APR    =       217.3715 c_born[1] =    891433.3681 f_CB[1]  =    885453.2214 
c_born[12] =    175652.3052 f_CB[12] =    174747.6301 c_born[4] =    347890.9533 
f_CB[4]  =    347527.0953
------------ Step          97000 ----- CPU =     31641.46 (sec) -------------
Step     =          97000 Temp     =       295.8538 Press    =       499.3610 
f_APR    =       217.6037 c_born[1] =    897866.5835 f_CB[1]  =    885454.4388 
c_born[12] =    176039.1496 f_CB[12] =    174748.7726 c_born[4] =    347656.5419 
f_CB[4]  =    347528.2583
------------ Step          97100 ----- CPU =     31670.83 (sec) -------------
Step     =          97100 Temp     =       290.6316 Press    =       391.3605 
f_APR    =       218.3338 c_born[1] =    891071.0479 f_CB[1]  =    885460.9720 
c_born[12] =    175987.0094 f_CB[12] =    174750.8448 c_born[4] =    348079.9687 
f_CB[4]  =    347529.8665
------------ Step          97200 ----- CPU =     31699.96 (sec) -------------
Step     =          97200 Temp     =       301.5516 Press    =      -310.0263 
f_APR    =       218.3923 c_born[1] =    887863.4305 f_CB[1]  =    885466.6394 
c_born[12] =    174830.4925 f_CB[12] =    174751.9045 c_born[4] =    347497.1309 
f_CB[4]  =    347530.8517
------------ Step          97300 ----- CPU =     31729.54 (sec) -------------
Step     =          97300 Temp     =       304.8166 Press    =      1062.4311 
f_APR    =       218.6844 c_born[1] =    895076.4111 f_CB[1]  =    885470.2287 
c_born[12] =    173491.6354 f_CB[12] =    174752.6156 c_born[4] =    344699.3578 
f_CB[4]  =    347530.8906
------------ Step          97400 ----- CPU =     31760.89 (sec) -------------
Step     =          97400 Temp     =       301.2885 Press    =       657.2580 
f_APR    =       219.2264 c_born[1] =    891032.1782 f_CB[1]  =    885476.5552 
c_born[12] =    176424.5607 f_CB[12] =    174751.5214 c_born[4] =    348237.2135 
f_CB[4]  =    347528.7424
------------ Step          97500 ----- CPU =     31790.61 (sec) -------------
Step     =          97500 Temp     =       299.8074 Press    =       -85.9985 
f_APR    =       220.2742 c_born[1] =    890992.8174 f_CB[1]  =    885482.5258 
c_born[12] =    177543.2242 f_CB[12] =    174752.5955 c_born[4] =    350279.8538 
f_CB[4]  =    347529.1149
------------ Step          97600 ----- CPU =     31820.74 (sec) -------------
Step     =          97600 Temp     =       297.1763 Press    =       130.1007 
f_APR    =       220.6767 c_born[1] =    888457.9748 f_CB[1]  =    885487.5007 
c_born[12] =    176709.7330 f_CB[12] =    174753.6760 c_born[4] =    349961.4665 
f_CB[4]  =    347530.3412
------------ Step          97700 ----- CPU =     31849.76 (sec) -------------
Step     =          97700 Temp     =       294.7658 Press    =     -1830.2577 
f_APR    =       221.4083 c_born[1] =    890114.9119 f_CB[1]  =    885489.3159 
c_born[12] =    176341.9492 f_CB[12] =    174753.7411 c_born[4] =    348844.5099 
f_CB[4]  =    347530.1639
------------ Step          97800 ----- CPU =     31879.27 (sec) -------------
Step     =          97800 Temp     =       297.4835 Press    =      1239.9872 
f_APR    =       221.2487 c_born[1] =    881735.6840 f_CB[1]  =    885489.6968 
c_born[12] =    175470.7607 f_CB[12] =    174754.3700 c_born[4] =    348181.5387 
f_CB[4]  =    347530.4598
------------ Step          97900 ----- CPU =     31909.37 (sec) -------------
Step     =          97900 Temp     =       302.5128 Press    =      1127.3772 
f_APR    =       221.4308 c_born[1] =    891788.9113 f_CB[1]  =    885493.5957 
c_born[12] =    174893.3186 f_CB[12] =    174755.6770 c_born[4] =    346515.2308 
f_CB[4]  =    347531.0828
------------ Step          98000 ----- CPU =     31939.64 (sec) -------------
Step     =          98000 Temp     =       299.3613 Press    =     -1746.1445 
f_APR    =       221.3772 c_born[1] =    871166.0565 f_CB[1]  =    885489.0348 
c_born[12] =    176809.3307 f_CB[12] =    174756.8128 c_born[4] =    352116.8275 
f_CB[4]  =    347532.5409
------------ Step          98100 ----- CPU =     31969.31 (sec) -------------
Step     =          98100 Temp     =       305.7642 Press    =      1391.5074 
f_APR    =       221.7420 c_born[1] =    889471.7318 f_CB[1]  =    885486.6130 
c_born[12] =    173661.4876 f_CB[12] =    174756.5490 c_born[4] =    345304.2569 
f_CB[4]  =    347532.5479
------------ Step          98200 ----- CPU =     31998.38 (sec) -------------
Step     =          98200 Temp     =       299.6774 Press    =      -761.1141 
f_APR    =       222.0454 c_born[1] =    883183.4562 f_CB[1]  =    885486.5843 
c_born[12] =    176093.2223 f_CB[12] =    174756.4778 c_born[4] =    348760.0061 
f_CB[4]  =    347532.1206
------------ Step          98300 ----- CPU =     32028.19 (sec) -------------
Step     =          98300 Temp     =       303.4312 Press    =       904.9796 
f_APR    =       221.4235 c_born[1] =    892757.5120 f_CB[1]  =    885486.0791 
c_born[12] =    176079.0345 f_CB[12] =    174758.5776 c_born[4] =    348718.1137 
f_CB[4]  =    347534.0565
------------ Step          98400 ----- CPU =     32057.29 (sec) -------------
Step     =          98400 Temp     =       294.0392 Press    =      1061.1597 
f_APR    =       222.0184 c_born[1] =    891574.4720 f_CB[1]  =    885488.7457 
c_born[12] =    175844.4917 f_CB[12] =    174758.1262 c_born[4] =    348269.3025 
f_CB[4]  =    347533.0257
------------ Step          98500 ----- CPU =     32087.72 (sec) -------------
Step     =          98500 Temp     =       300.4558 Press    =     -1574.8170 
f_APR    =       222.7808 c_born[1] =    881241.9627 f_CB[1]  =    885493.2966 
c_born[12] =    175707.9672 f_CB[12] =    174757.7774 c_born[4] =    348535.0966 
f_CB[4]  =    347532.5659
------------ Step          98600 ----- CPU =     32117.35 (sec) -------------
Step     =          98600 Temp     =       302.3912 Press    =     -1448.4222 
f_APR    =       222.5344 c_born[1] =    872988.6107 f_CB[1]  =    885489.9810 
c_born[12] =    176123.2378 f_CB[12] =    174760.0563 c_born[4] =    349868.5314 
f_CB[4]  =    347534.9626
------------ Step          98700 ----- CPU =     32146.47 (sec) -------------
Step     =          98700 Temp     =       302.9234 Press    =       158.1480 
f_APR    =       222.1996 c_born[1] =    878184.4587 f_CB[1]  =    885477.3460 
c_born[12] =    174960.7590 f_CB[12] =    174760.9624 c_born[4] =    347566.1158 
f_CB[4]  =    347536.6028
------------ Step          98800 ----- CPU =     32176.54 (sec) -------------
Step     =          98800 Temp     =       305.6916 Press    =     -1589.7778 
f_APR    =       222.3774 c_born[1] =    876706.3244 f_CB[1]  =    885464.6930 
c_born[12] =    174183.1506 f_CB[12] =    174762.3038 c_born[4] =    346942.9360 
f_CB[4]  =    347538.1765
------------ Step          98900 ----- CPU =     32206.06 (sec) -------------
Step     =          98900 Temp     =       299.5658 Press    =     -1925.6100 
f_APR    =       222.8247 c_born[1] =    877487.4457 f_CB[1]  =    885456.7072 
c_born[12] =    174738.1970 f_CB[12] =    174761.8205 c_born[4] =    347108.4796 
f_CB[4]  =    347537.6118
------------ Step          99000 ----- CPU =     32235.58 (sec) -------------
Step     =          99000 Temp     =       296.7720 Press    =      1000.4674 
f_APR    =       222.5692 c_born[1] =    880501.8246 f_CB[1]  =    885446.7244 
c_born[12] =    174308.5061 f_CB[12] =    174761.2256 c_born[4] =    347252.3588 
f_CB[4]  =    347537.5344
------------ Step          99100 ----- CPU =     32265.23 (sec) -------------
Step     =          99100 Temp     =       301.2350 Press    =      1037.4413 
f_APR    =       223.1575 c_born[1] =    890240.8377 f_CB[1]  =    885450.8355 
c_born[12] =    173608.8755 f_CB[12] =    174759.1848 c_born[4] =    345653.3720 
f_CB[4]  =    347535.1143
------------ Step          99200 ----- CPU =     32295.76 (sec) -------------
Step     =          99200 Temp     =       310.2199 Press    =       518.6243 
f_APR    =       223.6449 c_born[1] =    891770.4354 f_CB[1]  =    885454.9567 
c_born[12] =    171022.6471 f_CB[12] =    174756.9421 c_born[4] =    342845.2469 
f_CB[4]  =    347532.3178
------------ Step          99300 ----- CPU =     32326.44 (sec) -------------
Step     =          99300 Temp     =       297.7487 Press    =      1394.2839 
f_APR    =       224.5858 c_born[1] =    886732.4698 f_CB[1]  =    885454.0245 
c_born[12] =    171369.2484 f_CB[12] =    174755.3261 c_born[4] =    343750.8766 
f_CB[4]  =    347530.3106
------------ Step          99400 ----- CPU =      32356.4 (sec) -------------
Step     =          99400 Temp     =       302.0496 Press    =      -315.3430 
f_APR    =       225.1554 c_born[1] =    881453.7975 f_CB[1]  =    885455.2202 
c_born[12] =    170516.5317 f_CB[12] =    174752.0076 c_born[4] =    344069.4668 
f_CB[4]  =    347526.5395
------------ Step          99500 ----- CPU =     32386.73 (sec) -------------
Step     =          99500 Temp     =       298.6647 Press    =      -259.9453 
f_APR    =       224.4155 c_born[1] =    883184.4476 f_CB[1]  =    885448.5839 
c_born[12] =    173514.2458 f_CB[12] =    174750.7506 c_born[4] =    346188.6887 
f_CB[4]  =    347525.6607
------------ Step          99600 ----- CPU =     32416.76 (sec) -------------
Step     =          99600 Temp     =       300.8547 Press    =       -17.9213 
f_APR    =       225.0661 c_born[1] =    885281.4521 f_CB[1]  =    885448.1299 
c_born[12] =    174047.0930 f_CB[12] =    174749.4241 c_born[4] =    346510.8930 
f_CB[4]  =    347524.0368
------------ Step          99700 ----- CPU =     32446.15 (sec) -------------
Step     =          99700 Temp     =       304.0796 Press    =        -8.8792 
f_APR    =       225.2203 c_born[1] =    888582.1477 f_CB[1]  =    885455.1218 
c_born[12] =    174382.6344 f_CB[12] =    174748.8490 c_born[4] =    346781.4058 
f_CB[4]  =    347522.6713
------------ Step          99800 ----- CPU =     32476.23 (sec) -------------
Step     =          99800 Temp     =       293.5813 Press    =      1126.3597 
f_APR    =       225.4383 c_born[1] =    890667.2974 f_CB[1]  =    885461.1221 
c_born[12] =    176017.1984 f_CB[12] =    174748.7191 c_born[4] =    348997.4978 
f_CB[4]  =    347522.6031
------------ Step          99900 ----- CPU =     32505.44 (sec) -------------
Step     =          99900 Temp     =       301.3098 Press    =        49.3708 
f_APR    =       225.9637 c_born[1] =    892590.1949 f_CB[1]  =    885467.0202 
c_born[12] =    173470.6989 f_CB[12] =    174747.8852 c_born[4] =    345990.9455 
f_CB[4]  =    347521.8303
------------ Step         100000 ----- CPU =     32535.97 (sec) -------------
Step     =         100000 Temp     =       297.4174 Press    =       571.8902 
f_APR    =       226.2635 c_born[1] =    888456.6954 f_CB[1]  =    885473.2089 
c_born[12] =    171731.2715 f_CB[12] =    174745.4915 c_born[4] =    344555.2728 
f_CB[4]  =    347519.3131
Loop time of 32536 on 1 procs for 100000 steps with 2988 atoms

Performance: 0.266 ns/day, 90.378 hours/ns, 3.074 timesteps/s
99.8% CPU use with 1 MPI tasks x 1 OpenMP threads

MPI task timing breakdown:
Section |  min time  |  avg time  |  max time  |%varavg| %total
---------------------------------------------------------------
Pair    | 1386.1     | 1386.1     | 1386.1     |   0.0 |  4.26
Bond    | 43.244     | 43.244     | 43.244     |   0.0 |  0.13
Neigh   | 188.69     | 188.69     | 188.69     |   0.0 |  0.58
Comm    | 8.6114     | 8.6114     | 8.6114     |   0.0 |  0.03
Output  | 308.54     | 308.54     | 308.54     |   0.0 |  0.95
Modify  | 30598      | 30598      | 30598      |   0.0 | 94.04
Other   |            | 2.323      |            |       |  0.01

Nlocal:           2988 ave        2988 max        2988 min
Histogram: 1 0 0 0 0 0 0 0 0 0
Nghost:          14709 ave       14709 max       14709 min
Histogram: 1 0 0 0 0 0 0 0 0 0
Neighs:    1.21924e+06 ave 1.21924e+06 max 1.21924e+06 min
Histogram: 1 0 0 0 0 0 0 0 0 0

Total # of neighbors = 1219236
Ave neighs/atom = 408.04418
Ave special neighs/atom = 12.156627
Neighbor list builds = 4708
Dangerous builds = 0

# Compute vector averages
# Note the indice switch.
# LAMMPS convention is NOT the Voigt notation.
variable aves1 equal "ave(f_VEC[1])"
variable aves2 equal "ave(f_VEC[2])"
variable aves3 equal "ave(f_VEC[3])"
variable aves4 equal "ave(f_VEC[6])"
variable aves5 equal "ave(f_VEC[5])"
variable aves6 equal "ave(f_VEC[4])"

# Computing the covariance through the <s_{i}s_{j}>-<s_i><s_j>
# is numerically instable. Here we go through the <(s-<s>)^2>
# definition.

# Computing difference relative to average values
variable ds1 vector "f_VEC[1]-v_aves1"
variable ds2 vector "f_VEC[2]-v_aves2"
variable ds3 vector "f_VEC[3]-v_aves3"
variable ds4 vector "f_VEC[4]-v_aves4"
variable ds5 vector "f_VEC[5]-v_aves5"
variable ds6 vector "f_VEC[6]-v_aves6"

# Squaring and averaging
variable dds1 vector "v_ds1*v_ds1"
variable dds2 vector "v_ds2*v_ds2"
variable dds3 vector "v_ds3*v_ds3"
variable vars1 equal "ave(v_dds1)"
variable vars2 equal "ave(v_dds2)"
variable vars3 equal "ave(v_dds3)"
variable C11 equal "v_Pa2GPa*(v_C1*f_CB[1] - v_C2*v_vars1 + 2*v_Rhokbt)"
variable C22 equal "v_Pa2GPa*(v_C1*f_CB[2] - v_C2*v_vars2 + 2*v_Rhokbt)"
variable C33 equal "v_Pa2GPa*(v_C1*f_CB[3] - v_C2*v_vars3 + 2*v_Rhokbt)"

variable dds12 vector "v_ds1*v_ds2"
variable dds13 vector "v_ds1*v_ds3"
variable dds23 vector "v_ds2*v_ds3"
variable vars12 equal "ave(v_dds12)"
variable vars13 equal "ave(v_dds13)"
variable vars23 equal "ave(v_dds23)"
variable C12 equal "v_Pa2GPa*(v_C1*f_CB[7] - v_C2*v_vars12)"
variable C13 equal "v_Pa2GPa*(v_C1*f_CB[8] - v_C2*v_vars13)"
variable C23 equal "v_Pa2GPa*(v_C1*f_CB[12] - v_C2*v_vars23)"

variable dds4 vector "v_ds4*v_ds4"
variable dds5 vector "v_ds5*v_ds5"
variable dds6 vector "v_ds6*v_ds6"
variable vars4 equal "ave(v_dds4)"
variable vars5 equal "ave(v_dds5)"
variable vars6 equal "ave(v_dds6)"
variable C44 equal "v_Pa2GPa*(v_C1*f_CB[4] - v_C2*v_vars4 + v_Rhokbt)"
variable C55 equal "v_Pa2GPa*(v_C1*f_CB[5] - v_C2*v_vars5 + v_Rhokbt)"
variable C66 equal "v_Pa2GPa*(v_C1*f_CB[6] - v_C2*v_vars6 + v_Rhokbt)"

variable aC11 equal "(v_C11 + v_C22 + v_C33)/3."
variable aC12 equal "(v_C12 + v_C13 + v_C23)/3."
variable aC44 equal "(v_C44 + v_C55 + v_C66)/3."

print """
C11 = ${aC11}
C12 = ${aC12}
C44 = ${aC44}
"""

C11 = 7.1537004518525
C12 = 4.84443571479186
C44 = -7.18382003689931

Total wall time: 9:02:16
