LAMMPS data file via write_data, version 23 Jun 2022, timestep = 1201596

3017 atoms
19 atom types
3060 bonds
17 bond types
5803 angles
31 angle types

30.180556859553505 59.775441140450276 xlo xhi
29.163057859553547 58.75794214045032 ylo yhi
29.953058859553508 59.54794314045028 zlo zhi

Masses

1 1.00794
2 1.00794
3 12.0107
4 12.0107
5 1.00794
6 1.00794
7 1.00794
8 1.00794
9 15.9994
10 15.9994
11 12.0107
12 12.0107
13 1.00794
14 15.9994
15 15.9994
16 12.0107
17 12.0107
18 1.00794
19 15.9994

Pair Coeffs # lj/cut/omp

1 0.038 2.44997
2 0.038 2.44997
3 0.039 3.87541
4 0.039 3.87541
5 0.038 2.44997
6 0.038 2.44997
7 0 0
8 0.038 2.44997
9 0.228 2.85978
10 0.228 2.85978
11 0.148 3.61705
12 0.039 3.87541
13 0.038 2.44997
14 0.228 2.85978
15 0.228 2.85978
16 0.148 3.61705
17 0.148 3.61705
18 0 0
19 0.228 2.85978

Bond Coeffs # harmonic/omp

1 340.618 1.105
2 340.618 1.105
3 322.716 1.526
4 340.618 1.105
5 340.618 1.105
6 340.618 1.105
7 384 1.42
8 540.634 0.96
9 833.72 1.208
10 283.092 1.52
11 340.618 1.105
12 615.322 1.23
13 322.716 1.526
14 340.618 1.105
15 384 1.42
16 540.634 0.96
17 384 1.42

Angle Coeffs # harmonic/omp

1 39.5 106.4
2 44.4 110
3 39.5 106.4
4 44.4 110
5 39.5 106.4
6 46.6 110.5
7 44.4 110
8 44.4 110
9 70 109.5
10 46.6 110.5
11 44.4 110
12 58.5 106
13 39.5 106.4
14 57 109.5
15 57 109.5
16 46.6 110.5
17 45 109.5
18 50 120
19 68 120
20 46.6 110.5
21 44.4 110
22 55 120
23 39.5 106.4
24 70 109.5
25 57 109.5
26 70 109.5
27 57 109.5
28 80 109.5
29 70 106
30 80 109.5
31 58.5 106

Atoms # full

1226 2 5 0 33.1870909415943 32.76524846682563 30.468676697326092 0 0 1
819 2 1 0 33.140935823520785 31.65628583778627 33.087604682606575 0 0 0
813 2 5 0 34.093123960826105 33.71621332107195 34.603934875061846 0 0 0
818 2 4 0 35.025203360907135 31.119565446877377 34.16821464510562 0 0 0
817 2 3 0 34.20545822543913 31.9388190160473 33.198159390143594 0 0 0
814 2 15 0 32.9450729483689 33.855388981256425 32.895213590160786 0 0 0
811 2 4 0 34.1184967915317 33.414940621265465 33.5734837155738 0 0 0
810 2 3 0 35.40621343122708 34.08225265346298 33.02919764801821 0 0 0
2953 9 13 0 32.42883468170406 30.7187870537706 30.924785432545622 2 1 0
820 2 5 0 36.008871747703985 31.45655788774236 34.24693098289016 0 0 0
816 2 8 0 34.571251894294655 31.766040129490587 32.230725111811786 0 0 0
809 2 8 0 36.06840179396126 33.16174959447848 32.89144076979188 0 0 0
812 2 1 0 35.250963181916795 34.588382154824245 32.10227605452811 0 0 0
2927 7 17 0 32.48177229284979 35.16116078431871 33.11300036849752 2 3 3
804 2 4 0 36.24914200976964 34.888368567281944 34.076433088401764 0 0 0
2950 9 12 0 31.352370593812772 30.604316973606675 31.072523146651708 2 1 0
806 2 5 0 36.26279905494823 34.37969717663591 35.075487289561146 0 0 0
1234 2 15 0 31.643707739339785 35.54167405756826 31.994282690480347 0 0 1
2924 7 12 0 31.65278534224874 35.11776916815108 34.39185391115487 2 3 3
2933 7 13 0 33.283189688289426 35.84851614916293 33.17972921283873 2 3 3
1231 2 4 0 32.26285098527241 36.05154499651013 30.761384664995838 0 0 1
826 2 1 0 33.44103357217124 31.646422314411033 35.511026095766944 0 0 0
824 2 3 0 34.35083392154584 31.08196761775204 35.484355503285386 0 0 0
827 2 5 0 35.65085731924981 32.416224649306834 36.255378754432094 0 0 0
1227 2 15 0 31.156643404378183 33.120775693122496 30.52629067581294 0 0 1
2952 9 13 0 31.26897069275486 30.440358318784835 32.210719944880886 2 1 0
823 2 8 0 34.01077516409223 30.053569668921874 35.69867151732722 0 0 0
821 2 15 0 35.0486388985078 29.789343724504327 33.544034060726304 0 0 0
2929 7 13 0 32.3621696152339 35.010982254687484 35.22790791089827 2 3 3
2928 7 13 0 31.082934667415035 34.16902783826448 34.5106764411464 2 3 3
2921 7 12 0 30.681428078988155 36.26534720840826 34.61696347640827 2 3 3
2949 9 17 0 30.540578711346004 31.82137303230681 30.666530148080714 2 1 0
2886 4 13 0 36.92152945462503 29.693735348929035 32.70042469090025 -2 2 2
2197 4 10 0 31.219395915686185 30.26338489102938 35.04237492132165 1 0 0
2877 4 13 0 37.05259064905236 29.878986475964005 35.34069350850009 -2 2 2
1232 2 1 0 33.975658539449924 34.75465607294902 30.226137328555545 0 0 1
2198 4 7 0 30.732334089389195 30.28394370113947 34.211626902670055 1 0 0
2951 9 12 0 30.98475462391965 58.724318041479535 30.63845558318309 2 0 0
825 2 4 0 35.149678962768164 31.539346307693094 36.721244491847855 0 0 0
1233 2 5 0 31.33386445937469 36.386326387894755 30.17218086338715 0 0 1
803 2 3 0 35.78325611260284 36.313345736756574 34.22137157353213 0 0 0
805 2 1 0 35.13113359557602 36.55396790634539 35.07187904845245 0 0 0
802 2 8 0 35.227718449330034 36.53992810973803 33.28978014594889 0 0 0
2192 4 8 0 31.755883661770994 31.490414517216223 37.316263446312156 1 0 0
1214 2 7 0 36.49723438543569 31.95416631135508 30.81731748043196 0 0 1
1213 2 10 0 35.910138884675234 32.43792374158809 30.25670482685073 0 0 1
808 2 7 0 38.12293699332989 35.25867931444971 34.21130906049916 0 0 0
2926 7 13 0 59.565301427281014 36.19972413233148 33.78312395958494 1 3 3
1230 2 3 0 32.93419644249643 34.835833834132885 59.541060016342115 0 0 0
807 2 10 0 37.588656957687164 34.82172722650201 33.540940228064194 0 0 0
795 2 8 0 37.6858290699991 36.20634902295653 35.95616870571939 0 0 0
2838 1 13 0 40.79408221554975 32.296034708500066 33.9291047606916 -6 -4 -3
2834 1 12 0 41.19563780879182 32.73060268244609 33.033765070934265 -6 -4 -3
2839 1 13 0 40.35934941664998 32.44622782978971 32.3013224490288 -6 -4 -3
2837 1 17 0 41.324436488430734 34.25179264599341 33.38064021220493 -6 -4 -3
2843 1 13 0 40.45990214909749 34.62917229935522 34.004821720156464 -6 -4 -3
919 2 15 0 41.49168374020774 35.01872231694202 32.21589013378592 0 0 0
769 2 4 0 42.597730016542926 35.237300294596324 35.233519758958664 0 0 0
2835 1 13 0 42.12770741086088 31.18514482693201 31.85985865779558 -6 -4 -3
772 2 15 0 42.49317593114534 34.29058201707521 34.07305875340353 0 0 0
2831 1 12 0 42.426737510141486 31.8736594644793 32.68126533096457 -6 -4 -3
2833 1 13 0 42.76411501693519 31.45627463050424 34.85351793740143 -6 -4 -3
2830 1 12 0 42.948867859945544 31.00106926894506 33.87319669400622 -6 -4 -3
2836 1 13 0 43.166247561688394 32.548174570366314 32.368745374836145 -6 -4 -3
2832 1 13 0 44.051869477238206 30.946707936491237 33.71379392189144 -6 -4 -3
916 2 4 0 40.29095553608371 35.638727508973965 31.71206365829353 0 0 0
770 2 1 0 40.693048124115876 34.437554973556004 35.99357407145587 0 0 0
768 2 3 0 41.68127662549497 34.7297945669005 36.380686247628155 0 0 0
757 2 5 0 40.40282068876772 32.139219414843375 36.12383298586309 0 0 0
771 2 5 0 43.59178719977285 35.13291067317644 35.6792994177061 0 0 0
750 2 5 0 40.3379635931176 29.966918009641788 35.46152266779806 0 0 0
2829 1 17 0 42.39331063661805 29.583325057124203 33.930077288740165 -6 -4 -3
918 2 5 0 39.59408366432614 35.83837436564011 32.472874793012984 0 0 0
764 2 5 0 42.99108609603569 33.009258893146196 36.70777899836422 0 0 0
748 2 4 0 41.22030669805482 29.57716537385872 36.11457412071862 0 0 0
924 2 1 0 39.15903658184499 33.98533587956039 30.945184775280875 0 0 0
2841 1 13 0 41.35862658822433 29.481247547667184 33.5988734389008 -6 -4 -3
751 2 15 0 42.40489384242946 29.291281817652575 35.37376488832803 0 0 0
2826 9 9 0 38.494845557908526 32.228608981621896 34.31589427811028 -3 0 4
922 2 3 0 39.58731015451789 34.95145728313921 30.525487767156296 0 0 0
921 2 8 0 38.71038466396862 35.46076591458423 30.091135831780907 0 0 0
2825 9 9 0 38.05316011133451 32.591288822072826 35.35623441474044 -3 0 4
753 2 8 0 42.52261149434375 30.924702112575783 37.231597471093735 0 0 0
762 2 4 0 42.33318425076352 33.749811195449944 37.307235937259975 0 0 0
767 2 8 0 41.37539113822533 35.61749351972868 37.02098740577145 0 0 0
754 2 3 0 41.47624349290956 30.61585165496623 37.17824557440959 0 0 0
932 2 5 0 43.35432079291174 33.74141430105157 30.374576290376513 0 0 0
2296 4 7 0 45.43835968443086 37.64134177837181 30.82090929100957 0 0 0
755 2 4 0 40.574730590427095 31.841790033022438 37.17490956785647 0 0 0
1207 2 7 0 37.855438358350334 31.46580272787072 30.527232139016665 0 0 1
1206 2 10 0 38.57798112172519 31.026278456210758 30.14106897158231 0 0 1
931 2 1 0 41.19101699462307 33.19312077385199 30.57652492333699 0 0 0
1199 2 10 0 41.101409272236644 29.786967273717313 59.172441189016105 0 0 0
2290 4 8 0 46.185893762529346 34.191797177753834 31.711090050618818 0 0 0
2283 4 8 0 45.68685868652966 33.49777898939586 34.22649483232368 0 0 0
2280 4 5 0 45.60122390863637 35.59615140707207 35.99547691418503 0 0 0
2281 4 10 0 45.45650781325526 33.690827896581155 36.65112956691732 0 0 0
2278 4 4 0 46.233509431925114 34.670327812172744 35.94961553877783 0 0 0
2273 4 5 0 47.93859805486033 32.95252780227384 36.67268440692346 0 0 0
2232 4 15 0 48.72894200907278 30.647453544174883 33.53489965503372 0 0 0
2973 10 13 0 51.10730717530231 32.8073574782462 34.08099304434992 0 0 0
2969 10 12 0 50.406421278986834 33.49241344687149 34.66459543395359 0 0 0
2974 10 13 0 49.4103006046047 33.12434718938171 34.30689938491074 0 0 0
2972 10 17 0 50.39011082264034 33.16832103943834 36.20354998231958 0 0 0
2274 4 15 0 49.67901790311025 34.223668907557204 36.8996685756084 0 0 0
2966 10 12 0 50.6342453343605 34.97008543328063 34.231021164706746 0 0 0
2225 4 15 0 49.83749480310393 31.82052456290433 36.44246156346792 0 0 0
2277 4 3 0 47.540920989306684 35.03054876735527 36.563322486828596 0 0 0
2970 10 13 0 50.43301459029027 35.06959858816488 33.157802540509714 0 0 0
2971 10 13 0 49.98239248807674 35.59560686036389 34.79139189290338 0 0 0
2224 4 5 0 51.45630620696767 30.936219434317216 35.32028703597915 0 0 0
2222 4 4 0 50.67770928357521 30.742876940903617 36.159032376170984 0 0 0
2978 10 13 0 51.39984662013062 33.16202315162696 36.66000440223888 0 0 0
2892 5 13 0 47.875803704908876 31.88224992603436 31.539059982140046 -1 1 -1
2896 5 13 0 49.654138693678235 33.203282650279654 31.348388585240674 -1 1 -1
2890 5 12 0 48.68706752269216 31.202938632058675 31.199283553875787 -1 1 -1
2891 5 12 0 49.840339909247504 32.219457042671124 30.8534210264899 -1 1 -1
2889 5 17 0 48.820061636024334 30.041323860731357 32.23576785951168 -1 1 -1
2895 5 13 0 50.79073443057012 31.81303162696336 31.314421561318525 -1 1 -1
2291 4 3 0 46.75459692382664 35.03155580206153 32.10473319957585 0 0 0
2284 4 3 0 46.4199428129005 34.20171430535899 34.50832837774091 0 0 0
2276 4 8 0 48.17848957089265 35.562501590426166 35.79096881388877 0 0 0
2286 4 1 0 47.29154354899986 33.593290900991256 34.3424841736986 0 0 0
2285 4 4 0 46.37611210060295 35.37992615957874 33.519299451963896 0 0 0
2271 4 4 0 48.29045665951203 33.858943280248624 37.12380865703961 0 0 0
2234 4 8 0 46.70244691360335 30.532873355846572 34.86323258312711 0 0 0
469 1 15 0 51.53916289265885 36.46019330499848 36.392282920066435 0 0 0
2279 4 1 0 47.32217427605156 35.78521900749525 37.34790546817707 0 0 0
2293 4 1 0 47.821297290798775 34.65409723181619 32.15630188188162 0 0 0
2235 4 3 0 47.472881760937625 29.99774972169593 35.42292163519936 0 0 0
2237 4 1 0 47.80890157320564 30.66051072918422 36.258898350330355 0 0 0
2287 4 5 0 47.09837544910706 36.14818582035073 33.889241736872144 0 0 0
2228 4 3 0 49.89347316598913 29.56839647554479 35.504170586311616 0 0 0
2229 4 4 0 48.70092627254955 29.6713092927908 34.61119883993641 0 0 0
2311 4 8 0 52.4050283165025 36.16489066846043 31.412997026622673 0 0 0
2304 4 8 0 49.668777762106345 35.633730873951556 31.191178109244678 0 0 0
2312 4 3 0 52.48390508348876 36.42726292421939 30.34890751205439 0 0 0
2893 5 13 0 48.40809046037275 30.709912268878206 30.21395309403992 -1 1 -1
2292 4 4 0 46.72294509961283 36.21904151477749 31.07873918950017 0 0 0
2300 4 1 0 47.50490408244978 34.637886095205914 59.23348374475336 0 0 -1
2298 4 3 0 47.39953977115992 35.79713158122267 59.28564167653349 0 0 -1
2309 4 15 0 51.10133125097478 34.46818468156404 29.98132135040151 0 0 0
2288 4 10 0 45.09979157263159 35.970360815555885 33.55097853933542 0 0 0
1010 2 15 0 50.13848471160611 29.39259144986854 32.239979102964895 0 0 0
2901 5 13 0 47.99425663206593 29.302603004136145 32.19594128331708 -1 1 -1
2230 4 1 0 50.5753105107825 58.52008982696958 34.900592165008575 0 -1 0
2221 4 3 0 51.4702008478655 30.43735919049614 37.43854228740128 0 0 0
2195 4 1 0 30.710223787145253 32.62025343613145 36.48279285231144 1 0 0
2193 4 3 0 30.701313360009458 31.65448595878194 36.996963285356856 1 0 0
2965 10 12 0 52.14366974537279 35.259043823735176 34.41466220255882 0 0 0
2964 10 17 0 52.476373281549925 36.48769975788701 35.29361043602022 0 0 0
2922 7 13 0 59.69353811922228 35.29176243604925 36.40086897997686 1 3 3
2194 4 4 0 30.25814809636777 30.58579163315418 36.01889374367452 1 0 0
2199 4 8 0 58.95578163042795 31.06179189862963 34.3309904615103 0 0 0
2968 10 13 0 52.657444595960015 35.314006348706926 33.45514512166791 0 0 0
2967 10 13 0 52.59925646565669 34.394043960389055 34.81594609309849 0 0 0
1050 2 1 0 54.850610206800376 34.12584389578851 33.83563637080738 0 0 0
1038 2 15 0 59.20815103307524 32.07506685137308 31.7522555626266 0 0 0
1044 2 5 0 55.55654451265197 34.15483297237121 31.85201447067833 0 0 0
1042 2 4 0 56.35299057598151 34.58157146180315 32.462528939950154 0 0 0
1035 2 4 0 58.04728272995848 32.844163737065635 31.263972471724244 0 0 0
1041 2 3 0 57.69589486641894 33.934054732035385 32.317766731420704 0 0 0
1048 2 3 0 55.91458038290852 34.28186627045372 33.905247157993706 0 0 0
1047 2 8 0 56.22425124001015 33.2435370232511 34.08836746520849 0 0 0
1043 2 1 0 58.1546408258135 33.586282985082775 33.27690234921141 0 0 0
2991 11 13 0 54.32427563204939 35.848153588882795 32.11533946335319 4 4 1
1055 2 3 0 55.52708426690974 34.77814084836049 36.30176429359129 0 0 0
1052 2 15 0 57.6476742475684 35.21771536717019 35.21950472441681 0 0 0
1049 2 4 0 56.22844916665808 35.156794079408755 35.06441927680473 0 0 0
1045 2 15 0 56.40540475665496 36.028009983874256 32.16635660441307 0 0 0
1057 2 1 0 55.23542899173616 33.717520034220705 36.17563894266153 0 0 0
1058 2 5 0 53.252717302878395 34.88401004432402 36.724512456938996 0 0 0
1054 2 8 0 56.173198543752946 34.82350868912549 37.14381202717283 0 0 0
1056 2 4 0 54.17529413727243 35.52300572904603 36.640095443304205 0 0 0
1040 2 8 0 58.359191802507894 34.786023761356795 32.00259372810467 0 0 0
1034 2 3 0 56.85290045323994 31.854083321314565 31.201935456268977 0 0 0
1033 2 8 0 56.35376814655872 31.856862115675057 32.16349722564489 0 0 0
2200 4 3 0 58.541484227508974 31.000402235852647 35.34081865027085 0 0 0
2202 4 1 0 58.3232342795013 32.046284247368966 35.64738367089862 0 0 0
2207 4 3 0 56.37812075866756 30.420553313328227 36.50992180274555 0 0 0
2208 4 4 0 54.92892385813447 30.044765593178205 36.21820465222327 0 0 0
1031 2 10 0 57.147612699858456 29.60986107927576 32.00002580278139 0 0 0
2201 4 4 0 57.4024346408208 29.998866984159765 35.44443926762102 0 0 0
2203 4 5 0 56.96044630269702 29.844563962362145 34.42891811431314 0 0 0
2206 4 8 0 56.455584697486685 31.516864843595677 36.746822010066744 0 0 0
1028 2 4 0 57.07553464485768 30.389191607039212 30.817851006898454 0 0 0
2920 7 12 0 59.540399095926745 36.238943551898835 35.99096720135566 1 3 3
2318 4 8 0 53.369459583790736 33.713594053272246 30.392460125701938 0 0 0
2211 4 10 0 54.33341647122448 30.92206563823951 35.26773077772845 0 0 0
2212 4 7 0 55.08947508203835 31.374630292959402 34.907079640818374 0 0 0
1059 2 15 0 53.833435006750044 36.6082780221866 35.789298328495136 0 0 0
2196 4 5 0 30.21543172963114 29.676815103504104 36.62551369529737 1 0 0
2209 4 1 0 56.54881867451665 29.852207347783814 37.40118041044708 0 0 0
1024 2 10 0 54.37017540522982 29.913027345312038 31.603706659937394 0 0 0
2214 4 3 0 54.00664952457014 30.122308213814183 37.44273592000264 0 0 0
1051 2 5 0 55.82523428838425 36.19082112141659 34.729357205181465 0 0 0
2210 4 5 0 54.905893599127516 58.651434147059916 35.75135984001642 0 -1 0
1021 2 4 0 54.482776458328416 29.913434807913355 30.190027502888643 0 0 0
1023 2 5 0 54.10261193366645 30.88282032129676 59.36411111945618 0 0 -1
2956 9 13 0 59.55159358558792 58.499842748135706 30.729813860064723 1 0 0
2919 7 17 0 58.02569302987047 36.51408848674231 35.814878261140514 1 3 3
1032 2 7 0 57.78193245995352 58.50248078494732 31.835958450351797 0 -1 0
1037 2 5 0 58.19789179553962 33.36257945145671 30.319360954171895 0 0 0
1236 2 8 0 34.26729674015769 36.95119887085998 31.105054225729486 0 0 1
2925 7 13 0 31.155884488714257 37.24180162117638 34.4367334218927 2 3 3
797 2 4 0 36.8499104498197 37.39538653580388 34.22948621550823 0 0 0
1237 2 3 0 33.23494228455334 37.2940203019909 30.891849019861205 0 0 1
3041 15 12 0 36.063711824333986 40.47419214479264 32.15739707928883 0 0 0
3046 15 13 0 36.41429519282355 41.336900531552615 31.531884923951594 0 0 0
3045 15 13 0 36.437947170197944 40.63998330916611 33.19619293133951 0 0 0
1241 2 15 0 32.834893079604676 39.724232132744305 30.54778107992565 0 0 1
1239 2 1 0 33.03559516090722 37.704070493934 31.917776778409785 0 0 1
3049 15 13 0 35.695012784556354 38.42752806093753 31.770788381886103 0 0 0
3039 15 17 0 33.80299512486169 40.83393632037401 30.689035663277714 0 0 0
3040 15 12 0 34.54368504006864 40.73131088147594 32.11080478928241 0 0 0
3044 15 12 0 36.4865866256443 39.08539024010263 31.684133706517787 0 0 0
799 2 5 0 36.3977620566377 38.370386665739886 34.44509151160958 0 0 0
3048 15 13 0 36.62156637806119 39.119718059754334 30.595518608739532 0 0 0
3042 15 13 0 34.1306450773712 39.83865523307458 32.56916654776149 0 0 0
3043 15 13 0 34.21721181589796 41.48314350548762 32.77120108413776 0 0 0
156 1 8 0 31.867479046884938 42.01722385739794 32.391015614549275 0 0 0
151 1 4 0 33.19463214347677 43.257083064454335 31.0668436903228 0 0 0
157 1 3 0 31.96666002996633 42.98570382791026 31.96367927187967 0 0 0
868 2 1 0 35.7396204471631 42.28911369429249 35.77224796495971 0 0 0
154 1 15 0 33.15416149032062 42.080264445315095 30.286556853013767 0 0 0
859 2 3 0 33.74225178459151 40.78218009572998 36.778919155865964 0 0 0
858 2 8 0 33.62464109842712 40.81102804027698 35.63201896077301 0 0 0
153 1 5 0 34.15292342035825 43.30758133964241 31.55381497671132 0 0 0
163 1 8 0 30.7649565784341 42.76539478891024 34.46394944324296 0 0 0
861 2 1 0 34.64329089361448 40.14812968857434 36.8852294562392 0 0 0
1238 2 4 0 33.342174102161465 38.557649984497225 59.53499738189485 0 0 0
800 2 15 0 37.38688798198629 37.24838429285939 32.941075424883024 0 0 0
854 2 1 0 32.289298485329496 38.456227524440486 36.459445308437004 0 0 0
159 1 1 0 31.073550483983183 42.983693325277926 31.28245392576307 0 0 0
866 2 3 0 35.49275585204912 42.657385391927924 36.77201400190526 0 0 0
865 2 8 0 35.39887406345074 43.82833518283533 36.56361347227285 0 0 0
863 2 10 0 33.16987588969183 43.041203395021576 36.74694078881324 0 0 0
872 2 8 0 37.87824130215622 41.71310327142578 36.02448769383169 0 0 0
2856 2 13 0 37.36845695058785 42.76240408880038 34.11433087410111 -4 -1 0
856 2 10 0 31.430265465484077 40.89092621648186 37.436825102542436 0 0 0
2923 7 13 0 30.3257800999216 36.94028348873614 36.73957742491921 2 3 3
2377 4 1 0 30.43737736429468 39.54741232122924 35.26499755282669 1 0 0
2373 4 7 0 30.84277556169937 40.53764708955697 32.83737499414069 1 0 0
2372 4 10 0 30.695598244222282 39.60491091239028 32.842227708564764 1 0 0
169 1 7 0 30.34923332322328 43.454693635676826 36.618057818177356 0 0 0
164 1 3 0 30.606277095742133 43.81471445866384 34.06764432966749 0 0 0
168 1 10 0 59.59935599387752 44.30964391261925 36.405819426637436 -1 0 0
166 1 1 0 59.2136840305685 43.82052688228152 33.61442020381741 -1 0 0
3047 15 17 0 37.755353320419445 38.522013429933544 32.39486188965388 0 0 0
2844 2 17 0 37.72353419373 43.73504514848071 33.97124254151381 -4 -1 0
3053 15 13 0 38.19353862001469 39.210776473717374 33.08268265241915 0 0 0
798 2 1 0 38.77576212655541 36.65035549400032 34.72357577901707 0 0 0
873 2 3 0 37.99023211640781 42.46823387398525 36.79768345644307 0 0 0
775 2 3 0 42.22983380575345 36.680614666535924 34.829544636603856 0 0 0
774 2 8 0 41.1325028559197 36.9028581563045 34.607119258816645 0 0 0
777 2 1 0 42.794410692885165 36.751161119712584 33.9220360549457 0 0 0
796 2 3 0 37.92770687291471 37.06852992464513 35.24151568138486 0 0 0
792 2 5 0 38.292439517981435 39.235666997701905 35.34904625985667 0 0 0
874 2 4 0 38.65314457045066 43.76078009134795 36.19622343959958 0 0 0
915 2 3 0 40.735522099919756 37.0889857417634 31.350243603443754 0 0 0
790 2 4 0 38.126354699654534 38.36787181802735 36.03756534190965 0 0 0
879 2 8 0 40.12912559013137 42.329381074986856 35.43207545179561 0 0 0
880 2 3 0 39.9721940687016 43.42113156697143 35.569731135274395 0 0 0
886 2 8 0 41.72548236233002 42.89208834227591 33.54378831803955 0 0 0
914 2 8 0 41.76242525557346 37.18938779234451 31.553740446206387 0 0 0
776 2 4 0 42.730103221472504 37.82725853838768 35.63262006437243 0 0 0
912 2 15 0 38.75544755350552 38.25038461824349 31.427514859736576 0 0 0
909 2 4 0 40.01590787587668 38.18858458875914 32.053041805912954 0 0 0
911 2 5 0 39.91799239971547 37.92825015172295 33.14129304640828 0 0 0
908 2 3 0 40.73253184687229 39.54873147025179 31.92424021505158 0 0 0
907 2 8 0 40.316136545869455 40.3631616432495 32.56337752178527 0 0 0
778 2 5 0 42.831116612787525 38.63324638225586 34.87457413378867 0 0 0
785 2 5 0 40.541235943028624 39.09013465192121 35.392314220009766 0 0 0
412 1 5 0 44.3656241447387 41.36488801746594 32.70830103438976 0 0 0
413 1 10 0 44.44885976515736 39.26658884615202 33.16818504761666 0 0 0
783 2 4 0 40.572821664839196 39.02399841863947 36.4704149835253 0 0 0
902 2 4 0 40.90950778742448 40.150484147013486 30.54296402265503 0 0 0
779 2 10 0 44.017445500315276 37.42655163807024 36.025605191294574 0 0 0
406 1 10 0 43.98592551832585 42.613756312600216 35.97967052404033 0 0 0
893 2 8 0 43.26437807455851 43.17423311722932 31.701216763356246 0 0 0
905 2 10 0 39.65793825249235 40.436590909259095 29.97544298066156 0 0 0
910 2 1 0 41.74708998541897 39.37727533495368 32.391469139916964 0 0 0
897 2 5 0 40.36562633062921 42.72583180000297 31.068691220800613 0 0 0
895 2 4 0 41.39003511049935 42.71370429700034 30.590303565224648 0 0 0
906 2 7 0 39.219715244928736 39.596471338181395 59.5061013674014 0 0 -1
882 2 1 0 40.8645650368912 43.63191024537319 36.23397087116907 0 0 0
917 2 1 0 40.656145717877074 37.238344657095325 30.298915834455848 0 0 0
901 2 3 0 41.88498423530259 41.326682899439646 30.535064672663918 0 0 0
900 2 8 0 42.459786765215796 41.27081183132196 31.43859031596284 0 0 0
414 1 7 0 43.63870417405324 39.4327573433405 33.64294112462821 0 0 0
408 1 8 0 44.396446081306415 40.629987892371545 35.34334906423042 0 0 0
780 2 7 0 44.610146124586166 37.23851952444081 35.258107749461374 0 0 0
782 2 3 0 41.952942106496664 38.431775402994134 36.84824066019598 0 0 0
791 2 1 0 39.64449470264381 37.20380725730678 36.97165972829528 0 0 0
405 1 5 0 44.62190344242556 43.03622737286338 34.06361453156266 0 0 0
884 2 15 0 39.03895459632754 43.55422168115966 33.3310556123674 0 0 0
410 1 4 0 45.06354872088146 40.547820418289 33.26727837706052 0 0 0
789 2 3 0 39.358056738095854 38.26154536394649 36.95729952697786 0 0 0
420 1 10 0 44.86925338513635 40.299538699875335 30.62154930344809 0 0 0
403 1 4 0 44.95414034521875 42.51105050130838 34.92171955024746 0 0 0
894 2 3 0 42.40774298162324 43.709272298075376 31.29637393659965 0 0 0
407 1 7 0 44.1073672987918 43.454242335713474 36.39901102667755 0 0 0
887 2 3 0 41.44196860520337 43.917960066166195 33.67085576478249 0 0 0
889 2 1 0 42.25800281532289 44.248348313934414 34.40271604085537 0 0 0
904 2 5 0 41.34305110080134 39.366794575539174 59.41534692663714 0 0 -1
877 2 15 0 37.762137051817426 44.38268463661291 35.26190087651262 0 0 0
876 2 5 0 38.83426875100258 44.30752826448861 37.11388784587666 0 0 0
881 2 4 0 40.01469609458278 44.1244554842543 34.20433258120542 0 0 0
786 2 10 0 40.41733343052445 40.29535749940742 37.005887978604164 0 0 0
781 2 8 0 42.522421182652955 39.24536597556409 37.2301246900471 0 0 0
409 1 3 0 45.19568556209852 41.04636712137142 34.675557762600306 0 0 0
2289 4 7 0 44.615635780346636 35.21891229379723 33.841351072257396 0 0 0
2305 4 3 0 49.82755453262271 36.357987442676965 30.32408768477111 0 0 0
415 1 8 0 46.848110921630365 39.46968779805619 32.863878489722254 0 0 0
417 1 4 0 46.27967703539016 40.43106647259104 31.00746958740386 0 0 0
2294 4 5 0 47.29975499901527 37.093022965694594 31.507061838483573 0 0 0
416 1 3 0 46.39026559780273 40.37019393344041 32.58067509284716 0 0 0
411 1 1 0 46.10883864736584 40.6637664494269 35.091368392634344 0 0 0
401 1 8 0 46.8045708691308 42.50318577621649 36.14389258087245 0 0 0
418 1 1 0 47.094839147232584 41.12857643669341 32.92980430646401 0 0 0
464 1 8 0 49.982940280397166 37.883364472961446 34.990047836201924 0 0 0
457 1 8 0 49.03783751369349 39.454544189536605 33.95475690472627 0 0 0
455 1 15 0 51.575915815559796 40.171028017485284 33.3271724004551 0 0 0
458 1 3 0 49.47432295065641 40.27273181914819 34.540775818295955 0 0 0
452 1 4 0 50.53747508481531 41.034047522513625 33.7362968513896 0 0 0
460 1 1 0 48.68434531320492 41.02676989073004 34.803436663880625 0 0 0
459 1 4 0 49.856111276629505 39.701808065909844 35.96211758865626 0 0 0
465 1 3 0 49.911573334131695 38.23285895166562 36.076656427849485 0 0 0
461 1 5 0 50.79036654045159 40.10434992695146 36.413237566237854 0 0 0
450 1 8 0 49.47030665978196 40.86877446015981 31.895273521774897 0 0 0
454 1 5 0 50.94078466462585 41.80273107786166 34.403690157244014 0 0 0
451 1 3 0 49.86883808589204 41.656762174524275 32.53938268664329 0 0 0
453 1 1 0 48.95147519077681 42.14984654691034 32.83092660053984 0 0 0
445 1 4 0 50.92134123786779 42.59744106429498 31.97349595459052 0 0 0
447 1 5 0 51.164116222778546 43.31219496790129 32.836057686821356 0 0 0
444 1 3 0 50.37953311405608 43.39770242092925 30.782714356749526 0 0 0
466 1 4 0 51.117604301467 37.75314944492701 36.84937592761287 0 0 0
467 1 1 0 48.966053571557026 37.821347240875106 36.42125637483784 0 0 0
468 1 5 0 51.99355555414945 38.389012025478706 36.89841150845976 0 0 0
448 1 15 0 52.03699762109417 41.74436850200184 31.565627817194237 0 0 0
429 1 8 0 47.009937786229486 43.523182425712534 31.984320231933488 0 0 0
462 1 15 0 48.85675612334722 40.14487381106611 36.78794320346305 0 0 0
402 1 3 0 46.32854301575031 43.09259542788973 35.313768664047956 0 0 0
404 1 1 0 47.137871026005705 42.9327197164222 34.50931137765559 0 0 0
380 1 8 0 50.56113326076734 43.94459045441778 37.419440346292966 0 0 0
419 1 5 0 46.77839065504067 39.531418085530035 30.683591530172794 0 0 0
2987 11 17 0 52.54832335679656 40.97873331499589 32.645042369696945 4 4 1
2307 4 1 0 49.913737863253786 37.288522264796086 30.9188979209012 0 0 0
446 1 1 0 49.846516922133254 42.78791017780969 29.96388646514677 0 0 0
2314 4 1 0 52.41267816158583 37.5583526377691 30.329345699936525 0 0 0
430 1 3 0 46.403831096017875 43.94407553294946 31.17593213253948 0 0 0
3028 14 13 0 47.074531993157265 40.9059619125577 37.954003552908716 3 3 1
2295 4 10 0 45.40983292035705 36.68550963498632 30.95875118765122 0 0 0
2370 4 1 0 58.96139731148246 41.701765365597595 32.64085191699363 0 0 0
2976 10 13 0 52.287320785395636 37.49511408779082 34.87568704128785 0 0 0
2979 11 17 0 55.11526680714744 36.478210312843565 31.773584511878894 4 4 1
2931 7 13 0 57.38246845045758 36.6744049333942 36.69834229222501 1 3 3
2988 11 13 0 53.39567934698945 39.82073069845974 30.95346335634897 4 4 1
2993 11 13 0 52.84928746070481 41.615148237034724 33.497787219130984 4 4 1
2986 11 13 0 53.01687155575507 37.975550788203826 32.63494546958988 4 4 1
2367 4 8 0 57.454951626869445 41.36449561083977 33.53835132893489 0 0 0
2374 4 8 0 58.70857877988518 40.719528498912126 35.03128510089875 0 0 0
2379 4 15 0 57.70423194805528 37.58183246518819 34.94269678253395 0 0 0
2371 4 5 0 58.44863980154986 38.77726120172842 32.83662539468343 0 0 0
2985 11 13 0 53.98509029343582 38.98137873785921 33.802597853198435 4 4 1
2981 11 12 0 53.83299070490947 38.675095374285405 32.78026214787876 4 4 1
2984 11 12 0 53.60039031266449 40.002431862320144 32.02413027199878 4 4 1
2989 11 13 0 54.537391992892964 40.495848878717126 31.961944670950547 4 4 1
2980 11 12 0 55.107415255053546 37.97312329272946 32.17631909961801 4 4 1
2378 4 5 0 58.5611774999809 38.70378811882215 36.54846247058249 0 0 0
2376 4 4 0 57.989696075822636 38.8270625422479 35.60822619232539 0 0 0
2382 4 3 0 56.67374651576779 39.46946491881482 35.87047390978496 0 0 0
2384 4 1 0 56.435332265632944 40.044828910992585 34.96345641872114 0 0 0
2375 4 3 0 58.99255579100628 39.706093516029775 34.86111476429089 0 0 0
2369 4 4 0 58.9194935134215 39.642489216797316 33.31177081346449 0 0 0
2983 11 13 0 55.95403210303947 38.09200796268689 32.88897936060929 4 4 1
2368 4 3 0 58.18980696526493 40.975762089607514 32.761727286879065 0 0 0
2381 4 8 0 55.85113877273616 38.760510903830905 35.959793214392484 0 0 0
2364 4 5 0 57.16895645310352 39.676507282059276 31.376042538426923 0 0 0
2982 11 13 0 55.27947880049673 38.49955858031876 31.17446640134641 4 4 1
2362 4 4 0 57.56197283440783 40.669730671571585 31.439549130256488 0 0 0
2385 4 5 0 55.954323071483635 41.20582003492165 37.05858526790841 0 0 0
2383 4 4 0 56.58356330205276 40.31883125622486 37.18329236361139 0 0 0
369 1 1 0 53.588667198503856 43.7277972902416 34.28836728251361 0 0 0
366 1 8 0 55.072408994077584 42.91098736449066 34.74336152250539 0 0 0
2365 4 10 0 56.397809904959075 41.43616508070079 31.325182478660572 0 0 0
376 1 1 0 53.272843714673144 42.88523794641922 36.67623995098875 0 0 0
362 1 1 0 54.69273093218607 43.03892068531749 32.31631690015048 0 0 0
359 1 8 0 55.82195591649819 44.12301225619432 31.452548740698415 0 0 0
2386 4 10 0 57.85933494392063 40.827220580919686 37.48690182056548 0 0 0
2387 4 7 0 57.85081257223746 40.9428362288705 38.44637663999692 0 0 0
2394 4 7 0 53.139708139012 40.220208359400395 37.90716791943715 0 0 0
2393 4 10 0 53.920802058111605 39.74408882776237 37.6211318572133 0 0 0
2316 4 15 0 54.953930536882325 36.45748227194707 30.349326854392643 0 0 0
161 1 10 0 32.93495676488392 44.28033900659837 33.77008566211344 0 0 0