LAMMPS (23 Jun 2022 - Update 1)
OMP_NUM_THREADS environment is not set. Defaulting to 1 thread. (src/comm.cpp:98)
  using 1 OpenMP thread(s) per MPI task
Loaded 1 plugins from C:\Users\HP\AppData\Local\LAMMPS 64-bit 23Jun2022\plugins
package omp 0
using multi-threaded neighbor list subroutines
package omp 8
set 8 OpenMP thread(s) per MPI task
using multi-threaded neighbor list subroutines
# Initialization
units			real
dimension		3
processors		* * *
boundary		p p p
atom_style		full
pair_style		lj/cut 10.0
bond_style		harmonic
angle_style 	harmonic
read_data		after_cross_linking_correct.data
Reading data file ...
  orthogonal box = (30.222448 27.307948 30.19145) to (59.884552 56.970052 59.853554)
  1 by 1 by 1 MPI processor grid
  reading atoms ...
  2988 atoms
  reading velocities ...
  2988 velocities
  scanning bonds ...
  4 = max bonds/atom
  scanning angles ...
  6 = max angles/atom
  reading bonds ...
  3044 bonds
  reading angles ...
  5800 angles
Finding 1-2 1-3 1-4 neighbors ...
  special bond factors lj:    0        0        0       
  special bond factors coul:  0        0        0       
     4 = max # of 1-2 neighbors
     7 = max # of 1-3 neighbors
    16 = max # of 1-4 neighbors
    20 = max # of special neighbors
  special bonds CPU = 0.003 seconds
  read_data CPU = 0.065 seconds

#output

# going from 100-170 in steps of 10

thermo			100
thermo_style	custom step temp vol density


# npt for 150ps

fix			1 all npt temp 373 373 1000 iso 1 1 100
run			150000
Generated 153 of 153 mixed pair_coeff terms from geometric mixing rule
Last active /omp style is angle_style harmonic/omp
Neighbor list info ...
  update every 1 steps, delay 10 steps, check yes
  max neighbors/atom: 2000, page size: 100000
  master list distance cutoff = 12
  ghost atom cutoff = 12
  binsize = 6, bins = 5 5 5
  1 neighbor lists, perpetual/occasional/extra = 1 0 0
  (1) pair lj/cut/omp, perpetual
      attributes: half, newton on, omp
      pair build: half/bin/newton/omp
      stencil: half/bin/3d
      bin: standard
WARNING: Inconsistent image flags (src/domain.cpp:819)
Per MPI rank memory allocation (min/avg/max) = 31.41 | 31.41 | 31.41 Mbytes
   Step          Temp          Volume        Density    
         0   296.64116      26097.918      1.2032419    
       100   303.33456      25847.023      1.2149216    
       200   299.06096      26049.466      1.2054799    
       300   303.14203      26087.954      1.2037014    
       400   298.85132      25997.89       1.2078714    
       500   298.69748      26044.989      1.2056871    
       600   306.04658      26218.728      1.1976976    
       700   305.057        26298.438      1.1940674    
       800   306.28393      26275.441      1.1951125    
       900   308.84486      26155.67       1.2005851    
      1000   309.50916      26009.874      1.2073148    
      1100   315.27617      26172.854      1.1997968    
      1200   317.12823      26317.298      1.1932117    
      1300   313.8848       26180.248      1.199458     
      1400   325.64067      26239.848      1.1967336    
      1500   331.17372      26320.548      1.1930643    
      1600   322.56113      26357.513      1.1913911    
      1700   328.76279      26378.567      1.1904402    
      1800   331.32921      26198.539      1.1986205    
      1900   331.79805      26346.689      1.1918806    
      2000   331.58825      26096.155      1.2033231    
      2100   331.98742      26042.922      1.2057828    
      2200   340.23927      26236.329      1.1968941    
      2300   331.64908      26307.126      1.193673     
      2400   339.4362       26264.73       1.1955999    
      2500   340.91873      26590.153      1.1809675    
      2600   335.61825      26280.134      1.1948991    
      2700   340.60624      26285.166      1.1946703    
      2800   346.64392      26455.319      1.1869865    
      2900   339.76194      26248.644      1.1963326    
      3000   353.84644      26381.785      1.190295     
      3100   360.20726      26388.953      1.1899717    
      3200   351.88081      26397.449      1.1895887    
      3300   352.3703       26434.255      1.1879324    
      3400   362.60686      26474.153      1.1861421    
      3500   358.89834      26620.679      1.1796133    
      3600   360.29555      26520.983      1.1840476    
      3700   355.3561       26499.576      1.1850041    
      3800   359.72232      26305.99       1.1937246    
      3900   365.80956      26405.204      1.1892394    
      4000   365.63251      26569.347      1.1818923    
      4100   371.54173      26514.924      1.1843182    
      4200   364.10482      26301.039      1.1939493    
      4300   363.80294      26551.985      1.1826651    
      4400   367.57878      26658.664      1.1779325    
      4500   375.24687      26384.933      1.190153     
      4600   371.42928      26423.515      1.1884152    
      4700   370.31782      26331.553      1.1925657    
      4800   375.63386      26621.885      1.1795599    
      4900   376.05765      26608.723      1.1801433    
      5000   377.75325      26634.81       1.1789875    
      5100   379.526        26626.517      1.1793547    
      5200   382.2638       26734.254      1.174602     
      5300   375.56022      26560.66       1.1822789    
      5400   378.34368      26583.003      1.1812852    
      5500   379.269        26580.948      1.1813765    
      5600   383.78696      26580.536      1.1813948    
      5700   383.00864      26501.78       1.1849056    
      5800   386.08782      26539.37       1.1832273    
      5900   381.00573      26763.129      1.1733347    
      6000   379.88824      26802.184      1.1716249    
      6100   383.56278      26702.754      1.1759876    
      6200   384.31935      26596.505      1.1806855    
      6300   370.80683      26476.574      1.1860336    
      6400   378.65565      26500.759      1.1849512    
      6500   385.33093      26163.581      1.2002221    
      6600   384.89022      26322.769      1.1929637    
      6700   387.53393      26578.506      1.181485     
      6800   373.71171      26484.091      1.185697     
      6900   379.3634       26759.84       1.1734789    
      7000   378.55374      26671.063      1.1773849    
      7100   383.03671      26735.973      1.1745264    
      7200   377.44164      26716.834      1.1753679    
      7300   376.64132      26768.035      1.1731196    
      7400   380.60678      26467.776      1.1864279    
      7500   380.05499      26614.667      1.1798798    
      7600   368.47384      26608.391      1.1801581    
      7700   373.50419      26687.368      1.1766656    
      7800   374.0406       26684.002      1.176814     
      7900   377.4202       26687.999      1.1766377    
      8000   367.28902      26738.583      1.1744118    
      8100   365.36224      26364.681      1.1910672    
      8200   366.46834      26675.25       1.1772001    
      8300   364.80561      26812.243      1.1711854    
      8400   371.60006      26744.795      1.174139     
      8500   364.41935      26871.717      1.1685933    
      8600   366.63789      26753.894      1.1737397    
      8700   365.14475      26896.477      1.1675175    
      8800   366.94724      26777.488      1.1727055    
      8900   368.94003      26515.187      1.1843065    
      9000   365.4654       26809.896      1.1712879    
      9100   362.70896      26986.009      1.163644     
      9200   363.04391      26891.476      1.1677346    
      9300   367.52267      26835.916      1.1701522    
      9400   365.19211      27094.237      1.1589958    
      9500   363.11733      26952.255      1.1651013    
      9600   369.27127      26799.44       1.1717449    
      9700   367.85171      26786.453      1.172313     
      9800   368.66241      26751.641      1.1738385    
      9900   367.48777      26687.924      1.1766411    
     10000   363.1703       26756.749      1.1736144    
     10100   365.13809      26667.971      1.1775214    
     10200   365.35546      26876.66       1.1683783    
     10300   362.44974      26808.07       1.1713677    
     10400   371.96305      26722.472      1.1751198    
     10500   375.6519       26720.104      1.175224     
     10600   377.33397      26702.972      1.175978     
     10700   370.99252      27051.336      1.1608339    
     10800   373.8368       26852.13       1.1694457    
     10900   364.87132      26785.025      1.1723755    
     11000   367.87775      26828.102      1.1704931    
     11100   373.22589      26706.673      1.175815     
     11200   375.45008      26635.526      1.1789558    
     11300   380.71819      26825.675      1.170599     
     11400   373.97061      26617.303      1.1797629    
     11500   376.98433      26618.178      1.1797242    
     11600   384.26881      26797.291      1.1718389    
     11700   377.76768      26691.715      1.176474     
     11800   382.62041      26672.533      1.17732      
     11900   384.64256      26909.267      1.1669626    
     12000   373.1683       27004.244      1.1628582    
     12100   373.95779      26819.64       1.1708624    
     12200   380.43579      26826.044      1.1705829    
     12300   369.8948       26769.24       1.1730668    
     12400   377.2109       26807.787      1.1713801    
     12500   383.12081      26704.063      1.17593      
     12600   383.77431      26995.112      1.1632516    
     12700   368.52559      27176.583      1.155484     
     12800   374.74465      27200.741      1.1544578    
     12900   368.42375      27159.687      1.1562028    
     13000   371.79846      27296.24       1.1504188    
     13100   383.57332      26968.402      1.1644037    
     13200   379.4509       26877.12       1.1683584    
     13300   376.67138      27085.902      1.1593525    
     13400   366.5379       26801.717      1.1716453    
     13500   371.51005      26936.304      1.1657913    
     13600   375.63398      26809.562      1.1713025    
     13700   370.66878      26875.206      1.1684415    
     13800   375.56085      26893.789      1.1676342    
     13900   373.56629      26863.114      1.1689675    
     14000   370.62014      26989.428      1.1634966    
     14100   376.58757      26935.677      1.1658184    
     14200   371.39806      27074.797      1.159828     
     14300   377.20263      27085.785      1.1593575    
     14400   376.61824      26929.6        1.1660815    
     14500   371.20203      26884.049      1.1680572    
     14600   374.65261      27076.186      1.1597685    
     14700   364.6735       26904.483      1.1671701    
     14800   366.53222      26851.669      1.1694658    
     14900   366.43718      26857.158      1.1692267    
     15000   364.53333      26864.628      1.1689016    
     15100   376.7667       26662.582      1.1777594    
     15200   372.68328      26785.719      1.1723451    
     15300   364.07404      26913.079      1.1667973    
     15400   365.12805      27015.925      1.1623554    
     15500   368.57956      27020.01       1.1621797    
     15600   369.83405      27018.016      1.1622655    
     15700   367.25979      26924.901      1.166285     
     15800   369.37011      26723.579      1.1750712    
     15900   365.33853      26748.266      1.1739867    
     16000   363.61508      26704.413      1.1759145    
     16100   367.06357      26759.523      1.1734928    
     16200   374.43143      26303.538      1.1938359    
     16300   364.69314      26482.33       1.1857759    
     16400   379.64494      26529.145      1.1836833    
     16500   373.11371      26672.326      1.1773292    
     16600   367.97014      26613.702      1.1799225    
     16700   373.78663      26799.318      1.1717502    
     16800   373.09906      27074.364      1.1598465    
     16900   380.28551      26819.963      1.1708483    
     17000   374.82256      26539.198      1.183235     
     17100   377.60216      26730.375      1.1747724    
     17200   380.02424      26951.567      1.165131     
     17300   373.44549      26936.675      1.1657752    
     17400   373.37565      26619.453      1.1796676    
     17500   364.38465      26966.366      1.1644916    
     17600   377.55925      26975.052      1.1641167    
     17700   379.0914       26856.954      1.1692356    
     17800   380.9819       26873.229      1.1685275    
     17900   373.32281      26884.761      1.1680263    
     18000   373.98401      27047.188      1.1610119    
     18100   377.13973      27036.282      1.1614802    
     18200   374.69795      26845.512      1.169734     
     18300   384.04165      26750.523      1.1738876    
     18400   380.20479      26896.209      1.1675291    
     18500   384.23339      26707.24       1.1757901    
     18600   380.06526      26730.247      1.1747781    
     18700   381.36812      26905.748      1.1671152    
     18800   374.71802      27060.274      1.1604504    
     18900   380.94202      26973.55       1.1641815    
     19000   382.42205      26778.855      1.1726456    
     19100   373.98393      26709.471      1.1756918    
     19200   370.98601      26593.394      1.1808236    
     19300   374.98007      26743.506      1.1741956    
     19400   374.32757      26854.857      1.1693269    
     19500   373.06251      26754.673      1.1737055    
     19600   371.26104      27005.48       1.162805     
     19700   367.45366      26982.9        1.1637781    
     19800   370.88836      26890.398      1.1677814    
     19900   373.36376      26768.39       1.1731041    
     20000   379.18838      26683.959      1.1768159    
     20100   375.06716      26729.828      1.1747965    
     20200   368.68831      27013.852      1.1624446    
     20300   371.65069      26918.486      1.1665629    
     20400   373.13494      26625.387      1.1794047    
     20500   369.30919      27067.399      1.160145     
     20600   368.50984      26912.896      1.1668052    
     20700   374.67681      26939.885      1.1656363    
     20800   366.53748      27067.523      1.1601397    
     20900   364.75353      26937.587      1.1657357    
     21000   373.38686      26962.848      1.1646436    
     21100   366.60361      27082.62       1.159493     
     21200   375.26527      27075.14       1.1598133    
     21300   371.35614      27282.034      1.1510178    
     21400   366.49945      27211.977      1.1539811    
     21500   365.285        27023.559      1.1620271    
     21600   372.9362       26669.7        1.1774451    
     21700   375.15424      26853.736      1.1693757    
     21800   373.42776      26916.889      1.1666321    
     21900   373.60476      26966.199      1.1644988    
     22000   363.37936      27005.132      1.16282      
     22100   369.74553      26918.638      1.1665563    
     22200   374.5695       26956.59       1.1649139    
     22300   370.07294      26951.691      1.1651257    
     22400   375.94763      26798.822      1.1717719    
     22500   372.59797      26707.682      1.1757706    
     22600   384.66851      26676.668      1.1771376    
     22700   378.32648      27152.437      1.1565116    
     22800   380.06883      27030.573      1.1617255    
     22900   385.01837      27177.356      1.1554511    
     23000   378.16273      27002.692      1.1629251    
     23100   369.44016      26756.373      1.1736309    
     23200   377.27302      26789.984      1.1721585    
     23300   385.25878      26754.086      1.1737313    
     23400   375.11801      26632.988      1.1790681    
     23500   383.98557      26922.416      1.1663926    
     23600   375.71893      27041.33       1.1612634    
     23700   376.9302       26867.674      1.1687691    
     23800   377.03507      26998.637      1.1630997    
     23900   370.70397      26939.204      1.1656657    
     24000   375.01168      27081.8        1.1595281    
     24100   370.01595      27316.508      1.1495652    
     24200   374.86492      26939.656      1.1656462    
     24300   369.21672      26903.507      1.1672124    
     24400   373.23306      27121.769      1.1578193    
     24500   373.52171      27080.1        1.1596009    
     24600   366.98425      27030.894      1.1617118    
     24700   377.94617      26950.39       1.1651819    
     24800   380.07549      27030.593      1.1617247    
     24900   368.33046      26881.859      1.1681524    
     25000   372.19757      26828.763      1.1704642    
     25100   370.32384      26827.042      1.1705393    
     25200   378.49911      27075.332      1.1598051    
     25300   369.45183      26895.136      1.1675757    
     25400   371.55289      26992.266      1.1633743    
     25500   376.96471      27067.632      1.160135     
     25600   371.44261      26876.218      1.1683976    
     25700   376.16112      26913.177      1.166793     
     25800   375.43951      26879.136      1.1682707    
     25900   371.48514      26751.048      1.1738646    
     26000   372.51718      26909.073      1.166971     
     26100   370.58818      26862.399      1.1689986    
     26200   377.18104      26863.711      1.1689415    
     26300   375.82602      27025.491      1.161944     
     26400   372.15145      26992.887      1.1633475    
     26500   368.66169      26884.656      1.1680308    
     26600   367.07046      26956.206      1.1649305    
     26700   370.10077      26702.056      1.1760183    
     26800   365.38485      26745.79       1.1740953    
     26900   352.65509      26964.372      1.1645778    
     27000   360.80142      26681.676      1.1769166    
     27100   363.93068      26605.382      1.1802915    
     27200   363.17401      26623.183      1.1795024    
     27300   363.80339      26669.789      1.1774412    
     27400   366.55279      26667.626      1.1775367    
     27500   365.13656      26566.683      1.1820108    
     27600   359.70897      26554.994      1.1825311    
     27700   361.65125      26885.042      1.1680141    
     27800   358.67542      27125.759      1.157649     
     27900   358.60812      26905.555      1.1671236    
     28000   357.06286      26799.447      1.1717446    
     28100   361.00269      26884.336      1.1680448    
     28200   361.02031      27233.423      1.1530723    
     28300   362.05619      27316.349      1.1495719    
     28400   358.24271      27179.146      1.1553751    
     28500   365.25645      27038.813      1.1613715    
     28600   359.3403       27057.411      1.1605732    
     28700   372.08756      26922.817      1.1663752    
     28800   362.37793      26889.593      1.1678164    
     28900   365.53304      27089.903      1.1591812    
     29000   368.83912      26962.748      1.1646479    
     29100   363.69656      27047.53       1.1609972    
     29200   368.14344      26819.069      1.1708873    
     29300   368.91893      26748.234      1.1739881    
     29400   367.67915      27014.321      1.1624245    
     29500   370.43964      26768.72       1.1730896    
     29600   370.87758      26841.569      1.1699058    
     29700   380.07463      26884.581      1.1680341    
     29800   372.18372      26823.963      1.1706737    
     29900   368.58656      27203.712      1.1543317    
     30000   370.84903      27061.177      1.1604117    
     30100   368.60978      27148.995      1.1566582    
     30200   376.03452      27082.378      1.1595033    
     30300   381.54197      27149.341      1.1566435    
     30400   371.8601       27201.112      1.154442     
     30500   378.35961      27139.509      1.1570625    
     30600   372.82396      27127.109      1.1575914    
     30700   368.46099      27233.987      1.1530485    
     30800   380.95329      26997.773      1.163137     
     30900   374.18029      27143.604      1.1568879    
     31000   371.25991      26854.73       1.1693324    
     31100   374.18727      27008.555      1.1626726    
     31200   377.88456      27150.204      1.1566067    
     31300   370.71867      27189.496      1.1549352    
     31400   370.67837      27248.451      1.1524364    
     31500   375.29796      27332.772      1.1488812    
     31600   377.88132      26933.59       1.1659087    
     31700   376.61338      27096.898      1.158882     
     31800   367.72091      27268.342      1.1515958    
     31900   377.95863      27010.046      1.1626085    
     32000   378.28956      27226.041      1.153385     
     32100   373.11428      27125.594      1.157656     
     32200   373.03565      27174.946      1.1555536    
     32300   378.20533      27004.173      1.1628613    
     32400   373.66885      26752.669      1.1737935    
     32500   376.74959      27159.215      1.156223     
     32600   375.05472      27203.354      1.1543469    
     32700   377.03284      26979.76       1.1639135    
     32800   377.04524      27159.853      1.1561958    
     32900   379.22464      27022.526      1.1620715    
     33000   369.81366      27429.203      1.1448421    
     33100   372.63427      27665.999      1.1350433    
     33200   374.96496      27240.404      1.1527768    
     33300   378.89523      26970.938      1.1642942    
     33400   379.45647      26925.721      1.1662494    
     33500   383.58074      27138.747      1.157095     
     33600   378.29535      27442.729      1.1442778    
     33700   379.44635      27218.683      1.1536968    
     33800   375.95976      26890.115      1.1677937    
     33900   376.25176      27149.935      1.1566181    
     34000   372.22183      27197.262      1.1546055    
     34100   380.63889      26938.689      1.165688     
     34200   370.80097      26995.637      1.163229     
     34300   377.07503      26943.242      1.165491     
     34400   375.80104      26916.722      1.1666394    
     34500   379.21614      26886.222      1.1679628    
     34600   369.26385      27035.529      1.1615126    
     34700   368.6777       26878.76       1.1682871    
     34800   369.34094      26931.467      1.1660006    
     34900   362.63092      27088.594      1.1592372    
     35000   367.88817      27377.188      1.1470173    
     35100   368.0867       27398.776      1.1461135    
     35200   367.61787      26957.027      1.164895     
     35300   368.02611      27091.273      1.1591226    
     35400   367.88457      26930.9        1.1660252    
     35500   375.4737       26907.908      1.1670215    
     35600   375.77263      26886.264      1.167961     
     35700   372.18647      26780.626      1.1725681    
     35800   366.91877      27240.082      1.1527905    
     35900   368.68761      26959.475      1.1647893    
     36000   369.71394      27061.622      1.1603926    
     36100   368.35502      27242.85       1.1526734    
     36200   371.22204      27192.237      1.1548188    
     36300   368.30208      26945.84       1.1653787    
     36400   371.99085      26968.326      1.164407     
     36500   371.81954      27034.935      1.1615381    
     36600   370.1044       26836.622      1.1701214    
     36700   359.17419      26884.158      1.1680525    
     36800   371.18826      27025.311      1.1619517    
     36900   367.35243      27132.077      1.1573794    
     37000   367.17402      27254.471      1.1521819    
     37100   367.55396      27230.983      1.1531757    
     37200   370.25102      27306.389      1.1499912    
     37300   371.79532      27340.371      1.1485619    
     37400   371.39401      27120.798      1.1578607    
     37500   372.98869      27384.338      1.1467178    
     37600   372.25097      27278.4        1.1511711    
     37700   373.79123      27574.736      1.1387999    
     37800   377.58827      27381.843      1.1468223    
     37900   373.64877      27337.516      1.1486818    
     38000   373.89774      27410.155      1.1456377    
     38100   366.9223       27366.798      1.1474527    
     38200   377.9757       26955.939      1.1649421    
     38300   373.78077      27044.915      1.1611095    
     38400   383.56324      27207.689      1.154163     
     38500   368.66124      27512.451      1.141378     
     38600   374.47401      27060.409      1.1604447    
     38700   380.83074      27218.294      1.1537133    
     38800   375.81986      27392.703      1.1463676    
     38900   377.76409      27317.639      1.1495176    
     39000   378.00518      27298.633      1.150318     
     39100   373.12812      27261.668      1.1518777    
     39200   372.1938       27442.024      1.1443073    
     39300   376.57936      27436.375      1.1445429    
     39400   385.34941      27368.525      1.1473803    
     39500   381.67692      27162.013      1.1561038    
     39600   377.79993      27049.344      1.1609194    
     39700   378.9755       27109.221      1.1583552    
     39800   378.74479      27172.899      1.1556407    
     39900   377.98479      27016.957      1.1623111    
     40000   377.3259       27270.237      1.1515157    
     40100   371.50392      27106.583      1.1584679    
     40200   374.38871      27057.987      1.1605486    
     40300   381.98623      26946.533      1.1653487    
     40400   381.04796      27146.925      1.1567464    
     40500   377.59618      27300.655      1.1502327    
     40600   370.94825      27180.81       1.1553043    
     40700   376.09053      27249.495      1.1523923    
     40800   372.61155      27324.248      1.1492396    
     40900   375.29071      27165.415      1.155959     
     41000   374.52901      27117.333      1.1580087    
     41100   371.64713      27189.03       1.1549551    
     41200   374.30799      27298.587      1.1503199    
     41300   371.04969      27442.758      1.1442766    
     41400   372.42212      27475.966      1.1428937    
     41500   369.41198      27510.115      1.141475     
     41600   372.84487      27361.299      1.1476834    
     41700   372.21381      27505.337      1.1416733    
     41800   373.46912      27402.287      1.1459667    
     41900   372.75504      27364.664      1.1475422    
     42000   368.83119      27455.391      1.1437501    
     42100   367.54602      27649.282      1.1357296    
     42200   369.6043       27576.761      1.1387163    
     42300   374.81006      27402.926      1.1459399    
     42400   368.32191      27383.707      1.1467442    
     42500   378.6343       27441.451      1.1443311    
     42600   365.97437      27434.959      1.1446019    
     42700   371.24762      27581.063      1.1385387    
     42800   364.18506      27296.343      1.1504144    
     42900   370.86795      27530.977      1.14061      
     43000   365.53282      27525.705      1.1408285    
     43100   365.9229       27457.753      1.1436518    
     43200   368.65098      27533.338      1.1405122    
     43300   368.40842      27292.938      1.150558     
     43400   375.57557      27359.901      1.147742     
     43500   369.20816      27379.824      1.1469069    
     43600   376.61944      27314.346      1.1496562    
     43700   367.63723      27315.567      1.1496048    
     43800   375.87813      27262.983      1.1518221    
     43900   371.22181      27375.358      1.1470939    
     44000   381.54958      27431.234      1.1447574    
     44100   374.70879      27358.281      1.1478099    
     44200   379.67933      27335.782      1.1487547    
     44300   376.49393      27230.068      1.1532144    
     44400   373.31538      27272.419      1.1514236    
     44500   378.73805      27326.884      1.1491287    
     44600   385.64129      27295.701      1.1504415    
     44700   375.76498      27144.939      1.156831     
     44800   374.0628       27333.021      1.1488707    
     44900   381.20155      27408.359      1.1457128    
     45000   376.30054      27268.061      1.1516077    
     45100   383.28559      26918.153      1.1665773    
     45200   371.40906      27181.523      1.155274     
     45300   382.85926      27056.987      1.1605914    
     45400   378.26861      27320.911      1.1493799    
     45500   366.31447      27055.669      1.160648     
     45600   376.89222      27044.51       1.1611269    
     45700   377.87191      27055.303      1.1606637    
     45800   379.59819      27197.316      1.1546032    
     45900   376.32452      27417.776      1.1453193    
     46000   371.86878      27080.644      1.1595776    
     46100   377.14903      27038.034      1.161405     
     46200   377.29768      27325.19       1.1492       
     46300   372.17983      27593.691      1.1380176    
     46400   370.76702      27322.488      1.1493136    
     46500   376.80667      27398.745      1.1461148    
     46600   376.63959      27499.496      1.1419157    
     46700   370.23563      27346.175      1.1483181    
     46800   372.77887      27462.394      1.1434585    
     46900   368.63742      27332.895      1.148876     
     47000   374.28648      27261.456      1.1518867    
     47100   373.37057      27184.978      1.1551272    
     47200   364.28276      26939.63       1.1656473    
     47300   375.18489      27089.993      1.1591774    
     47400   369.45373      27103.671      1.1585924    
     47500   367.55242      27186.369      1.1550681    
     47600   371.71906      27347.903      1.1482455    
     47700   368.1561       27065.544      1.1602245    
     47800   375.90751      27013.977      1.1624392    
     47900   367.08492      27095.419      1.1589453    
     48000   366.2931       26954.255      1.1650148    
     48100   375.103        27103.263      1.1586099    
     48200   385.41042      27216.759      1.1537783    
     48300   366.62722      27385.289      1.146678     
     48400   371.16104      27148.071      1.1566975    
     48500   373.59136      27184.172      1.1551614    
     48600   367.43118      27308.666      1.1498953    
     48700   370.81441      27198.733      1.154543     
     48800   372.82022      27305.956      1.1500094    
     48900   371.83095      27389.957      1.1464825    
     49000   377.35086      27242.575      1.152685     
     49100   374.62359      27054.546      1.1606961    
     49200   369.88478      26859.397      1.1691293    
     49300   381.33283      26954.26       1.1650146    
     49400   373.86187      26965.693      1.1645207    
     49500   373.28125      26871.731      1.1685927    
     49600   373.81362      26982.267      1.1638054    
     49700   370.578        26831.919      1.1703266    
     49800   375.15453      26896.466      1.167518     
     49900   373.87835      26908.077      1.1670142    
     50000   377.00085      27029.583      1.1617681    
     50100   373.87294      26906.607      1.167078     
     50200   372.67484      26965.715      1.1645197    
     50300   378.41662      26918.543      1.1665604    
     50400   369.06591      27059.739      1.1604734    
     50500   374.89455      26908.471      1.1669971    
     50600   374.03184      26658.741      1.1779291    
     50700   369.13723      26839.621      1.1699907    
     50800   377.81926      26911.87       1.1668497    
     50900   369.17421      26870.685      1.1686381    
     51000   374.89615      27007.207      1.1627306    
     51100   372.38648      27184.958      1.155128     
     51200   368.09679      26758.767      1.1735259    
     51300   370.86497      26860.327      1.1690888    
     51400   372.73959      26926.739      1.1662053    
     51500   375.67466      26658.859      1.1779239    
     51600   379.71247      26787.047      1.172287     
     51700   373.66908      26889.312      1.1678286    
     51800   372.58423      27115.849      1.1580721    
     51900   376.51523      27310.063      1.1498365    
     52000   367.4595       27119.287      1.1579253    
     52100   371.67322      27073.288      1.1598926    
     52200   373.52369      27059.253      1.1604943    
     52300   374.13668      27114.584      1.1581261    
     52400   373.92392      26769.727      1.1730455    
     52500   370.10533      26783.864      1.1724263    
     52600   370.49421      26706.718      1.1758131    
     52700   376.49317      26822.761      1.1707261    
     52800   374.90313      26661.646      1.1778008    
     52900   366.7913       26890.557      1.1677745    
     53000   376.35366      27024.268      1.1619966    
     53100   372.69347      26915.469      1.1666937    
     53200   374.97034      27071.567      1.1599664    
     53300   383.58871      26997.031      1.1631689    
     53400   375.73221      26841.303      1.1699174    
     53500   373.2457       26868.363      1.1687392    
     53600   369.24386      26780.271      1.1725836    
     53700   371.02368      26989.342      1.1635003    
     53800   372.87531      26906.439      1.1670852    
     53900   371.15072      26941.015      1.1655874    
     54000   367.78608      27164.962      1.1559783    
     54100   369.72412      27019.968      1.1621815    
     54200   372.37775      26876.195      1.1683986    
     54300   371.27347      26860.436      1.1690841    
     54400   376.90935      26884.187      1.1680512    
     54500   368.55683      26637.106      1.1788859    
     54600   381.51688      26687.622      1.1766544    
     54700   369.79594      26649.16       1.1783526    
     54800   374.05475      26731.56       1.1747204    
     54900   374.77564      27112.494      1.1582154    
     55000   372.73477      27195.036      1.1547       
     55100   369.26146      27149.362      1.1566425    
     55200   373.17816      26779.706      1.1726084    
     55300   373.47767      26640.769      1.1787237    
     55400   365.20511      26898.342      1.1674365    
     55500   366.44093      26785.465      1.1723563    
     55600   368.52628      26658.409      1.1779438    
     55700   366.34625      26822.972      1.1707169    
     55800   368.13443      26628.36       1.1792731    
     55900   370.44492      26953.573      1.1650443    
     56000   368.87003      26803.694      1.1715589    
     56100   374.34639      26858.87       1.1691522    
     56200   366.86485      26831.172      1.1703591    
     56300   367.45012      26819.238      1.1708799    
     56400   368.18145      26702.264      1.1760092    
     56500   375.37038      26656.131      1.1780445    
     56600   366.74738      26660.099      1.1778691    
     56700   373.11085      26688.125      1.1766322    
     56800   370.10209      26782.192      1.1724995    
     56900   374.38729      26774.346      1.1728431    
     57000   373.54745      26903.023      1.1672334    
     57100   369.11463      26976.258      1.1640646    
     57200   371.39431      27014.517      1.162416     
     57300   377.85217      26798.721      1.1717763    
     57400   374.35937      26641.025      1.1787124    
     57500   375.53348      26748.379      1.1739817    
     57600   383.54773      26564.041      1.1821284    
     57700   380.71339      26473.585      1.1861676    
     57800   376.43349      26658.232      1.1779516    
     57900   374.92756      26579.033      1.1814616    
     58000   375.57775      26749.563      1.1739297    
     58100   375.19725      26785.408      1.1723587    
     58200   376.98708      26500.186      1.1849769    
     58300   375.83677      26491.855      1.1853495    
     58400   376.67943      26792.62       1.1720432    
     58500   374.52074      26544.506      1.1829984    
     58600   378.75553      26590.885      1.180935     
     58700   379.83679      26758.596      1.1735334    
     58800   379.45453      26773.297      1.1728891    
     58900   376.82922      26644.604      1.1785541    
     59000   376.13557      26470.25       1.186317     
     59100   384.4184       26507.65       1.1846432    
     59200   379.78336      26635.678      1.1789491    
     59300   378.71463      26907.637      1.1670333    
     59400   377.86806      26796.602      1.171869     
     59500   373.38357      26828.515      1.170475     
     59600   375.80618      26748.58       1.1739729    
     59700   374.95426      26799.459      1.1717441    
     59800   371.50858      26772.949      1.1729043    
     59900   365.58345      26474.917      1.1861078    
     60000   370.01805      26529.582      1.1836639    
     60100   366.80395      26485.425      1.1856373    
     60200   368.89636      26473.645      1.1861649    
     60300   363.90208      26683.904      1.1768183    
     60400   367.15926      26607.187      1.1802115    
     60500   364.39611      26631.786      1.1791214    
     60600   372.28735      26598.391      1.1806018    
     60700   370.28921      26747.258      1.1740309    
     60800   368.48259      26780.097      1.1725912    
     60900   361.50839      26457.788      1.1868758    
     61000   368.375        26535.715      1.1833903    
     61100   373.82276      26572.477      1.1817531    
     61200   367.02087      26572.268      1.1817624    
     61300   365.11366      26545.073      1.1829731    
     61400   367.01158      26533.479      1.18349      
     61500   364.21186      26586.599      1.1811254    
     61600   369.0403       26835.175      1.1701846    
     61700   368.90753      26912.293      1.1668313    
     61800   365.29484      26792.462      1.1720501    
     61900   369.30679      26603.67       1.1803675    
     62000   373.96615      26731.378      1.1747283    
     62100   362.33834      26852.173      1.1694438    
     62200   375.46284      26848.973      1.1695832    
     62300   370.21608      27078.332      1.1596766    
     62400   378.40516      27168.38       1.1558329    
     62500   373.0349       27027.727      1.1618479    
     62600   368.47951      26771.957      1.1729478    
     62700   371.39982      26957.248      1.1648855    
     62800   377.16817      26891.259      1.167744     
     62900   369.19656      26800.775      1.1716866    
     63000   372.61622      26550.139      1.1827474    
     63100   373.99778      26447.189      1.1873514    
     63200   371.1683       26528.74       1.1837014    
     63300   374.01026      26726.713      1.1749334    
     63400   382.73477      26443.23       1.1875292    
     63500   370.92975      26582.596      1.1813032    
     63600   383.36407      26616.636      1.1797925    
     63700   368.08119      26749.429      1.1739356    
     63800   374.61063      26706.473      1.1758238    
     63900   370.26215      26800.259      1.1717091    
     64000   380.50953      26579.885      1.1814238    
     64100   377.83894      26680.204      1.1769815    
     64200   375.91493      26437.029      1.1878077    
     64300   383.04272      26891.411      1.1677374    
     64400   371.1263       26864.643      1.168901     
     64500   377.13891      26738.405      1.1744196    
     64600   380.16391      26651.181      1.1782633    
     64700   368.20607      26843.163      1.1698363    
     64800   373.65532      26703.744      1.175944     
     64900   379.71273      26681.109      1.1769416    
     65000   372.81896      26741.518      1.1742829    
     65100   372.05449      26772.792      1.1729112    
     65200   377.91208      26692.718      1.1764297    
     65300   372.54076      26692.473      1.1764405    
     65400   370.64161      26611.85       1.1800047    
     65500   372.92625      26725.858      1.174971     
     65600   377.64306      26779.6        1.172613     
     65700   374.80303      26673.699      1.1772686    
     65800   372.83963      26711.386      1.1756076    
     65900   371.63207      26789.042      1.1721997    
     66000   364.75972      26720.024      1.1752275    
     66100   364.86798      26620.516      1.1796205    
     66200   369.18865      26763.703      1.1733095    
     66300   363.28081      26695.633      1.1763013    
     66400   365.4268       26744.314      1.1741602    
     66500   368.27555      26549.979      1.1827545    
     66600   364.21339      26610.675      1.1800568    
     66700   362.50388      26688.576      1.1766123    
     66800   364.76947      26656.864      1.178012     
     66900   361.46328      26680.205      1.1769815    
     67000   360.20776      26752.197      1.1738141    
     67100   362.56136      26835.563      1.1701676    
     67200   358.1019       27001.437      1.1629791    
     67300   362.6436       26937.903      1.165722     
     67400   364.77276      26798.808      1.1717726    
     67500   362.65457      26826.902      1.1705454    
     67600   362.37378      26845.975      1.1697138    
     67700   366.54081      26770.343      1.1730185    
     67800   359.32049      26708.196      1.175748     
     67900   368.61226      26893.093      1.1676644    
     68000   364.23644      26804.376      1.1715291    
     68100   368.72892      26828.353      1.1704821    
     68200   374.452        26726.355      1.1749491    
     68300   365.95741      26764.005      1.1732963    
     68400   369.29283      26800.903      1.171681     
     68500   373.01061      26883.932      1.1680623    
     68600   364            26580.132      1.1814128    
     68700   367.65002      26987.45       1.1635819    
     68800   371.10925      26961.638      1.1646958    
     68900   375.39748      26855.586      1.1692952    
     69000   364.97205      27086.616      1.1593219    
     69100   367.04656      26797.969      1.1718092    
     69200   370.96748      26979.964      1.1639047    
     69300   373.61292      27144.642      1.1568437    
     69400   376.52003      26916.374      1.1666544    
     69500   368.8634       26860.83       1.1690669    
     69600   371.36681      26701.673      1.1760352    
     69700   377.92765      26825.192      1.17062      
     69800   381.54467      26890.885      1.1677603    
     69900   368.48574      26911.326      1.1668733    
     70000   377.71904      26996.378      1.1631971    
     70100   381.40526      26765.731      1.1732206    
     70200   367.1987       26989.27       1.1635034    
     70300   370.51999      26855.649      1.1692924    
     70400   377.85105      26978.553      1.1639656    
     70500   377.34674      27163.954      1.1560212    
     70600   373.84431      26970.496      1.1643133    
     70700   377.11018      27023.237      1.1620409    
     70800   371.20476      26817.842      1.1709409    
     70900   371.15146      26997.863      1.1631331    
     71000   369.07345      27240.904      1.1527557    
     71100   375.9466       27052.659      1.1607771    
     71200   382.98926      27176.824      1.1554738    
     71300   375.6447       26984.437      1.1637118    
     71400   369.1039       26845.228      1.1697463    
     71500   375.52334      26852.109      1.1694466    
     71600   373.90971      26981.13       1.1638544    
     71700   379.78538      27014.529      1.1624155    
     71800   375.28         26923.292      1.1663547    
     71900   375.88128      27035.934      1.1614952    
     72000   376.53453      26879.16       1.1682697    
     72100   380.53036      26767.755      1.1731319    
     72200   379.71293      26661.992      1.1777855    
     72300   377.63262      26646.76       1.1784588    
     72400   381.61863      26651.383      1.1782543    
     72500   382.55267      26831.069      1.1703636    
     72600   379.40618      26765.102      1.1732482    
     72700   376.84455      26692.39       1.1764442    
     72800   376.21288      26776.133      1.1727648    
     72900   374.76769      26692.717      1.1764298    
     73000   371.67916      26813.747      1.1711197    
     73100   373.55948      26713.045      1.1755346    
     73200   364.6992       26743.983      1.1741747    
     73300   367.04362      26772.142      1.1729396    
     73400   371.60861      26616.011      1.1798202    
     73500   374.32743      26636.108      1.17893      
     73600   359.73094      26532.432      1.1835367    
     73700   364.88469      26615.127      1.1798594    
     73800   369.88832      26595.794      1.1807171    
     73900   364.21433      26500.115      1.18498      
     74000   373.48458      26592.363      1.1808694    
     74100   366.59969      26802.006      1.1716327    
     74200   363.01302      26839.222      1.1700081    
     74300   368.63331      26611.017      1.1800416    
     74400   373.34931      26756.419      1.1736289    
     74500   373.33545      26939.209      1.1656655    
     74600   369.19903      26920.284      1.166485     
     74700   369.0613       27066.23       1.1601951    
     74800   369.04485      27013.161      1.1624744    
     74900   369.96751      26939.444      1.1656554    
     75000   363.00095      26749.595      1.1739283    
     75100   366.66371      27140.619      1.1570151    
     75200   372.94357      26925.895      1.1662419    
     75300   362.74375      26918.928      1.1665437    
     75400   368.84826      26966.358      1.164492     
     75500   368.03312      27134.686      1.1572681    
     75600   379.86109      26773.252      1.172891     
     75700   368.80843      26859.874      1.1691085    
     75800   374.19762      27232.096      1.1531285    
     75900   374.19697      27136.993      1.1571697    
     76000   380.4959       27138.03       1.1571255    
     76100   375.62227      27133.851      1.1573037    
     76200   378.00078      27316.975      1.1495456    
     76300   366.67291      27225.824      1.1533942    
     76400   373.66669      27190.59       1.1548888    
     76500   384.91189      27240.048      1.1527919    
     76600   372.33007      26943.16       1.1654946    
     76700   379.45014      26942.223      1.1655351    
     76800   380.51247      26941.202      1.1655793    
     76900   378.83121      27023.933      1.162011     
     77000   374.33789      26996.609      1.1631871    
     77100   382.77574      26879.91       1.1682371    
     77200   375.80627      26818.74       1.1709017    
     77300   379.48436      27094.252      1.1589952    
     77400   363.24412      27133.677      1.1573112    
     77500   370.83347      27195.785      1.1546682    
     77600   380.58907      26799.506      1.171742     
     77700   373.75658      26833.868      1.1702415    
     77800   375.62179      26970.307      1.1643215    
     77900   380.99197      27043.753      1.1611594    
     78000   375.96619      26874.381      1.1684774    
     78100   382.09656      26697.207      1.1762319    
     78200   376.84742      26784.34       1.1724055    
     78300   369.87157      26869.907      1.168672     
     78400   377.98779      27172.876      1.1556417    
     78500   371.82298      26939.903      1.1656355    
     78600   376.58259      27065.31       1.1602346    
     78700   377.82936      27013.424      1.1624631    
     78800   374.05838      26885.726      1.1679844    
     78900   376.17564      26848.222      1.1696159    
     79000   382.21674      26854.669      1.1693351    
     79100   376.24351      26883.728      1.1680711    
     79200   377.68005      26937.72       1.16573      
     79300   374.13104      26927.4        1.1661767    
     79400   372.84416      26881.961      1.168148     
     79500   376.27477      26983.689      1.163744     
     79600   372.19767      27028.587      1.1618109    
     79700   368.35743      27149.8        1.1566239    
     79800   367.05477      27423.898      1.1450636    
     79900   369.80174      27384.811      1.146698     
     80000   367.10077      27085.675      1.1593622    
     80100   369.08002      26973.93       1.1641651    
     80200   375.0035       26952.376      1.1650961    
     80300   367.48517      26797.31       1.1718381    
     80400   374.16892      27044.583      1.1611238    
     80500   363.86381      27104.497      1.1585571    
     80600   371.64059      27150.93       1.1565757    
     80700   375.16613      27027.196      1.1618707    
     80800   367.74159      27057.355      1.1605756    
     80900   373.12271      27078.081      1.1596873    
     81000   371.55399      26881.961      1.1681479    
     81100   378.31638      26799.625      1.1717368    
     81200   378.86797      26657.378      1.1779894    
     81300   371.5613       26892.655      1.1676834    
     81400   371.49276      26852.575      1.1694263    
     81500   375.04471      27157.768      1.1562846    
     81600   371.88356      26901.521      1.1672986    
     81700   373.94069      26613.344      1.1799384    
     81800   381.8694       26765.972      1.17321      
     81900   370.14046      26894.593      1.1675993    
     82000   368.40988      27186.629      1.1550571    
     82100   374.37198      26711.246      1.1756137    
     82200   363.17035      26783.174      1.1724565    
     82300   385.48362      26914.373      1.1667412    
     82400   373.81288      26509.684      1.1845523    
     82500   378.07674      26848.79       1.1695912    
     82600   362.81563      26609.394      1.1801136    
     82700   378.85362      26781.026      1.1725506    
     82800   365.20736      26827.879      1.1705028    
     82900   371.92388      26812.295      1.1711831    
     83000   370.86006      26920.229      1.1664874    
     83100   376.27859      26955.476      1.1649621    
     83200   376.88051      26936.017      1.1658037    
     83300   369.55268      26885.519      1.1679934    
     83400   372.22117      26976.903      1.1640368    
     83500   380.79274      26794.092      1.1719788    
     83600   372.49842      26879.51       1.1682545    
     83700   376.90091      26744.643      1.1741457    
     83800   373.18926      26919.807      1.1665057    
     83900   371.61866      26768.736      1.1730889    
     84000   369.48548      26995.612      1.1632301    
     84100   375.27054      27140.401      1.1570245    
     84200   372.9495       26820.575      1.1708215    
     84300   373.58201      26848.927      1.1695852    
     84400   377.04838      26660.016      1.1778728    
     84500   376.64956      26721.988      1.1751411    
     84600   371.38206      26849.837      1.1695456    
     84700   371.20368      27081.053      1.1595601    
     84800   370.48768      27122.207      1.1578006    
     84900   374.0234       26910.23       1.1669208    
     85000   371.32093      26692.366      1.1764452    
     85100   369.89273      27005.621      1.1627989    
     85200   373.43516      26823.406      1.170698     
     85300   375.04754      27035.056      1.1615329    
     85400   378.02433      26945.652      1.1653868    
     85500   376.22409      26746.259      1.1740748    
     85600   374.1037       26828.685      1.1704676    
     85700   371.00103      26980.987      1.1638606    
     85800   376.26832      26818.903      1.1708945    
     85900   373.85555      26738.808      1.1744019    
     86000   375.81035      26916.552      1.1666467    
     86100   376.97225      26940.637      1.1656037    
     86200   373.20156      26881.571      1.1681649    
     86300   381.2752       26903.319      1.1672206    
     86400   374.88224      26829.422      1.1704355    
     86500   365.94565      26745.1        1.1741256    
     86600   370.56009      26560.003      1.1823081    
     86700   379.97972      26515.436      1.1842954    
     86800   373.52503      26593.891      1.1808015    
     86900   371.9113       26590.472      1.1809534    
     87000   373.06866      26795.478      1.1719182    
     87100   365.80525      26744.759      1.1741406    
     87200   376.37588      26731.569      1.17472      
     87300   366.65646      26688.91       1.1765976    
     87400   377.26736      26584.01       1.1812404    
     87500   369.64128      26734.469      1.1745925    
     87600   365.44117      26681.417      1.176928     
     87700   373.76931      26862.494      1.1689945    
     87800   377.04521      26578.188      1.1814992    
     87900   373.67453      26509.494      1.1845608    
     88000   376.99755      26561.737      1.1822309    
     88100   370.7022       26462.618      1.1866591    
     88200   370.48799      26721.32       1.1751705    
     88300   377.11921      26547.172      1.1828795    
     88400   374.12632      26426.201      1.1882944    
     88500   378.02429      26477.782      1.1859795    
     88600   382.35577      26423.783      1.1884032    
     88700   371.63123      26573.698      1.1816988    
     88800   371.29018      26729.499      1.1748109    
     88900   376.24522      26785.534      1.1723532    
     89000   376.03931      26742.693      1.1742313    
     89100   374.26206      26623.46       1.1794901    
     89200   373.26675      26637.307      1.1788769    
     89300   368.21919      26732.694      1.1746705    
     89400   370.73927      26763.678      1.1733106    
     89500   377.62367      26699.58       1.1761274    
     89600   369.62754      26784.09       1.1724164    
     89700   374.28185      26573.041      1.181728     
     89800   373.84383      26800.554      1.1716962    
     89900   367.388        26880.117      1.1682281    
     90000   370.44921      26799.143      1.1717579    
     90100   373.89722      27164.001      1.1560192    
     90200   369.44286      27047.224      1.1610104    
     90300   373.59641      27077.14       1.1597276    
     90400   369.16465      27105.361      1.1585201    
     90500   372.72393      26922.509      1.1663886    
     90600   369.94566      26752.388      1.1738057    
     90700   369.64511      26787.047      1.172287     
     90800   364.08579      27125.739      1.1576498    
     90900   366.01515      26875.886      1.168412     
     91000   373.30461      27039.344      1.1613487    
     91100   363.93547      26972.612      1.164222     
     91200   368.37531      27070.811      1.1599988    
     91300   366.54533      27164.776      1.1559862    
     91400   364.57943      26957.906      1.1648571    
     91500   367.47368      27129.305      1.1574977    
     91600   365.08074      27186.409      1.1550664    
     91700   369.84169      27171.964      1.1556804    
     91800   372.02585      27073.549      1.1598815    
     91900   372.18548      27084.622      1.1594073    
     92000   368.06512      26968.684      1.1643915    
     92100   365.93416      26869.458      1.1686915    
     92200   367.41413      26997.266      1.1631588    
     92300   374.25609      26910.676      1.1669015    
     92400   374.11417      26896.684      1.1675085    
     92500   377.65613      27027.745      1.1618471    
     92600   371.65901      26999.902      1.1630452    
     92700   367.99158      27053.669      1.1607338    
     92800   372.51129      26890.952      1.1677574    
     92900   375.13252      26797.987      1.1718084    
     93000   375.19618      27045.026      1.1611047    
     93100   370.38538      27132.388      1.1573662    
     93200   377.90129      27204.78       1.1542864    
     93300   376.15139      27184.303      1.1551559    
     93400   379.75883      27040.691      1.1612908    
     93500   379.9612       26950.706      1.1651683    
     93600   380.0897       27105.608      1.1585096    
     93700   375.68233      27219.832      1.1536481    
     93800   381.20247      27286.091      1.1508467    
     93900   374.44512      27263.5        1.1518003    
     94000   380.91148      27215.383      1.1538367    
     94100   379.17961      27015.63       1.1623681    
     94200   374.295        26879.614      1.1682499    
     94300   377.28197      27000.523      1.1630185    
     94400   377.06482      27175.317      1.1555378    
     94500   379.80916      27362.931      1.1476149    
     94600   383.94206      27116.494      1.1580445    
     94700   385.6004       27067.732      1.1601307    
     94800   369.28498      26998.377      1.1631109    
     94900   372.68962      27097.928      1.1588379    
     95000   375.44487      27122.097      1.1578053    
     95100   377.02083      27157.483      1.1562967    
     95200   378.4251       27051.326      1.1608343    
     95300   366.71516      27131.379      1.1574092    
     95400   371.26697      27415.761      1.1454035    
     95500   366.0186       27414.95       1.1454373    
     95600   378.31067      27387.585      1.1465818    
     95700   368.20555      27319.708      1.1494306    
     95800   367.73199      26934.16       1.165884     
     95900   370.28726      27032.58       1.1616393    
     96000   370.70368      26936.166      1.1657972    
     96100   364.34866      27193.715      1.1547561    
     96200   364.60048      27174.647      1.1555664    
     96300   365.7153       26971.14       1.1642855    
     96400   365.78807      27086.445      1.1593292    
     96500   371.78042      26943.194      1.1654931    
     96600   371.9729       26960.666      1.1647378    
     96700   365.62055      26947.685      1.1652989    
     96800   364.89448      26868.935      1.1687142    
     96900   370.18118      26962.691      1.1646503    
     97000   362.12805      27039.414      1.1613457    
     97100   376.93657      27294.069      1.1505103    
     97200   366.3242       27208.88       1.1541125    
     97300   368.45488      27213.513      1.153916     
     97400   369.86368      27216.708      1.1537805    
     97500   366.63096      27292.585      1.1505728    
     97600   370.34157      27080.245      1.1595947    
     97700   373.71335      27288.462      1.1507467    
     97800   371.07755      27276.699      1.1512429    
     97900   366.56133      27263.019      1.1518206    
     98000   370.74323      27375.176      1.1471016    
     98100   375.85552      27089.121      1.1592147    
     98200   369.68657      27175.287      1.1555391    
     98300   373.44408      26975.72       1.1640878    
     98400   369.4383       27184.343      1.1551542    
     98500   370.41827      27196.778      1.154626     
     98600   371.18129      27036.266      1.1614809    
     98700   374.444        27202.156      1.1543977    
     98800   369.94195      27030.4        1.161733     
     98900   373.94641      26950.118      1.1651937    
     99000   374.49766      27042.979      1.1611926    
     99100   377.59933      27004.268      1.1628572    
     99200   371.76035      27309.74       1.1498501    
     99300   366.93127      27298.37       1.150329     
     99400   374.32093      27146.88       1.1567483    
     99500   381.22716      27111.207      1.1582704    
     99600   376.32728      27330.469      1.148978     
     99700   375.5581       27019.784      1.1621894    
     99800   379.5005       27008.131      1.1626909    
     99900   371.04935      27022.539      1.162071     
    100000   374.09382      27061.909      1.1603804    
    100100   373.78121      27003.702      1.1628816    
    100200   376.60474      27108.876      1.15837      
    100300   371.79599      27259.943      1.1519506    
    100400   377.2998       27424.755      1.1450278    
    100500   374.24039      27323.969      1.1492513    
    100600   378.80189      27142.485      1.1569356    
    100700   371.53958      27207.951      1.1541519    
    100800   377.96394      27281.827      1.1510265    
    100900   370.2407       27134.259      1.1572863    
    101000   377.97467      26877.805      1.1683286    
    101100   377.40142      27027.074      1.1618759    
    101200   381.66839      27103.558      1.1585972    
    101300   378.16057      27069.433      1.1600578    
    101400   375.84535      27084.792      1.1594       
    101500   371.8804       27272.674      1.1514128    
    101600   378.82596      27364.925      1.1475313    
    101700   371.44821      27231.904      1.1531367    
    101800   373.58314      27205.737      1.1542458    
    101900   369.3308       27312.369      1.1497394    
    102000   376.759        27025.848      1.1619287    
    102100   374.21511      27004.251      1.1628579    
    102200   378.66733      27118.482      1.1579596    
    102300   365.86472      27105.652      1.1585077    
    102400   377.89593      26915.132      1.1667083    
    102500   371.1155       27043.157      1.161185     
    102600   369.59512      26806.966      1.171416     
    102700   376.49263      27046.571      1.1610384    
    102800   365.46445      27068.378      1.160103     
    102900   378.34272      27002.91       1.1629157    
    103000   377.72737      26938.817      1.1656825    
    103100   371.70772      26981.969      1.1638182    
    103200   368.75942      26924.235      1.1663138    
    103300   367.03405      27049.75       1.1609019    
    103400   373.92929      27157.779      1.1562841    
    103500   375.07578      27065.45       1.1602285    
    103600   362.33231      27055.804      1.1606422    
    103700   364.69633      26982.617      1.1637903    
    103800   371.89556      26866.162      1.1688349    
    103900   368.06734      26991.993      1.163386     
    104000   370.65965      26893.537      1.1676451    
    104100   367.54158      26862.544      1.1689923    
    104200   362.06299      26943.56       1.1654773    
    104300   363.56054      26940.617      1.1656046    
    104400   369.42708      27006.065      1.1627798    
    104500   366.60542      26943.507      1.1654796    
    104600   359.47363      27066.911      1.1601659    
    104700   368.5831       27339.6        1.1485943    
    104800   368.95027      27278.37       1.1511724    
    104900   370.07856      27095.815      1.1589283    
    105000   372.75299      27300.034      1.1502589    
    105100   365.57183      26842.692      1.1698569    
    105200   366.79189      27132.759      1.1573503    
    105300   370.74344      27188.858      1.1549624    
    105400   373.26868      27040.688      1.161291     
    105500   370.99471      27050.449      1.1608719    
    105600   375.41039      26933.206      1.1659253    
    105700   376.86379      27048.708      1.1609467    
    105800   374.39398      27032.47       1.161644     
    105900   377.34978      27128.461      1.1575337    
    106000   365.8314       27249.765      1.1523809    
    106100   380.64317      27275.849      1.1512788    
    106200   370.7443       27319.284      1.1494484    
    106300   370.35275      27137.607      1.1571436    
    106400   373.8062       27255.828      1.1521245    
    106500   370.44225      27300.727      1.1502297    
    106600   370.91719      27197.735      1.1545854    
    106700   379.26752      27079.096      1.1596439    
    106800   375.96719      27380.327      1.1468858    
    106900   373.26536      27342.586      1.1484688    
    107000   375.44969      27152.432      1.1565118    
    107100   379.60111      27281.523      1.1510394    
    107200   369.88181      27389.824      1.1464881    
    107300   377.18241      27264.742      1.1517478    
    107400   375.1339       27079.523      1.1596256    
    107500   367.59087      27189.621      1.1549299    
    107600   372.56336      27087.473      1.1592852    
    107700   374.52536      27313.273      1.1497014    
    107800   379.51653      27386.973      1.1466075    
    107900   376.6133       27231.598      1.1531496    
    108000   378.9613       27343.747      1.1484201    
    108100   373.35325      27146.994      1.1567435    
    108200   374.59549      26955.534      1.1649596    
    108300   382.43633      26867.4        1.168781     
    108400   378.89457      26850.992      1.1694952    
    108500   372.16331      26989.679      1.1634858    
    108600   373.72372      26872.019      1.1685801    
    108700   374.17793      26994.427      1.1632811    
    108800   374.20168      26842.539      1.1698635    
    108900   373.35517      26655.316      1.1780805    
    109000   368.61269      26912.455      1.1668243    
    109100   376.04268      26993.464      1.1633226    
    109200   371.31079      27078.149      1.1596844    
    109300   371.62185      27311.917      1.1497585    
    109400   379.02204      26986.353      1.1636292    
    109500   371.07857      26996.291      1.1632008    
    109600   363.94963      27114.069      1.1581481    
    109700   366.11067      27018.499      1.1622447    
    109800   363.49548      27238.846      1.1528428    
    109900   362.71116      26983.037      1.1637722    
    110000   370.3479       26943.342      1.1654867    
    110100   369.23738      26723.736      1.1750643    
    110200   370.01378      27029.009      1.1617928    
    110300   368.96242      26877.048      1.1683615    
    110400   365.56508      26821.052      1.1708008    
    110500   364.4669       26803.514      1.1715668    
    110600   365.88148      27080.65       1.1595773    
    110700   359.8687       27080.416      1.1595873    
    110800   363.66675      27347.618      1.1482575    
    110900   369.34309      27132.938      1.1573427    
    111000   361.71346      27207.485      1.1541716    
    111100   365.90164      27283.401      1.1509602    
    111200   369.37429      26631.206      1.179147     
    111300   365.22768      26595.037      1.1807506    
    111400   362.0276       26876.352      1.1683917    
    111500   362.40745      27005.816      1.1627906    
    111600   365.54531      26928.387      1.166134     
    111700   363.32766      27007.51       1.1627176    
    111800   373.69397      26767.498      1.1731432    
    111900   373.12056      27018.862      1.1622291    
    112000   369.56055      27116.092      1.1580617    
    112100   368.51989      27283.267      1.1509658    
    112200   376.34476      26973.12       1.1642001    
    112300   367.20374      26885.27       1.1680042    
    112400   377.17174      26889.95       1.1678009    
    112500   372.00909      27023.872      1.1620136    
    112600   370.70095      27227.582      1.1533197    
    112700   372.28445      27088.244      1.1592522    
    112800   373.33165      27063.326      1.1603196    
    112900   373.12216      27349.613      1.1481737    
    113000   374.39667      26952.772      1.1650789    
    113100   381.62389      26959.026      1.1648087    
    113200   375.6204       26959.509      1.1647878    
    113300   374.37009      27015.565      1.1623709    
    113400   372.29318      27151.871      1.1565357    
    113500   376.63566      27245.585      1.1525576    
    113600   370.66612      27312.282      1.1497431    
    113700   372.97133      27108.556      1.1583836    
    113800   370.29274      27409.594      1.1456612    
    113900   373.38129      27412.791      1.1455275    
    114000   373.58255      27266.117      1.1516898    
    114100   373.86343      27162.136      1.1560986    
    114200   369.75819      27163.4        1.1560448    
    114300   373.35943      27185.941      1.1550863    
    114400   373.04378      27510.088      1.1414761    
    114500   369.45239      27462.253      1.1434643    
    114600   372.50183      27181.969      1.155255     
    114700   377.18007      27098.046      1.1588329    
    114800   367.94446      27253.595      1.1522189    
    114900   367.7213       27299.053      1.1503002    
    115000   378.16607      27319.468      1.1494407    
    115100   375.70071      26851.666      1.1694659    
    115200   365.487        26914.228      1.1667475    
    115300   367.81557      26968.188      1.1644129    
    115400   372.51466      27052.679      1.1607762    
    115500   373.5299       26916.72       1.1666394    
    115600   361.21134      27124.837      1.1576883    
    115700   372.98172      27053.227      1.1607527    
    115800   367.87056      27138.458      1.1571073    
    115900   367.98996      26971.545      1.164268     
    116000   364.36895      27067.134      1.1601563    
    116100   374.53299      26804.813      1.17151      
    116200   367.56372      27005.609      1.1627994    
    116300   371.52828      27240.356      1.1527789    
    116400   367.43358      26967.519      1.1644419    
    116500   370.94378      26927.965      1.1661523    
    116600   366.40107      26883.103      1.1680983    
    116700   369.84434      26839.458      1.1699978    
    116800   364.30334      26884.01       1.1680589    
    116900   367.89934      26919.198      1.166532     
    117000   368.31178      27187.008      1.1550409    
    117100   375.70885      26929.606      1.1660812    
    117200   368.33852      27184.938      1.1551289    
    117300   372.03181      27189.604      1.1549307    
    117400   365.12863      26973.286      1.1641929    
    117500   364.53324      27191.279      1.1548595    
    117600   364.68603      27248.972      1.1524144    
    117700   372.50818      26962.631      1.164653     
    117800   377.69243      26727.553      1.1748965    
    117900   374.15522      26774.039      1.1728565    
    118000   372.11903      26750.484      1.1738893    
    118100   376.32933      26761.653      1.1733994    
    118200   368.19423      26742.554      1.1742374    
    118300   373.63492      26993.601      1.1633167    
    118400   380.61214      26988.025      1.1635571    
    118500   379.60189      27001.747      1.1629658    
    118600   373.98673      26750.006      1.1739103    
    118700   376.97153      26920.69       1.1664674    
    118800   379.2913       27084.916      1.1593947    
    118900   382.90513      26898.907      1.167412     
    119000   372.87051      27112.242      1.1582261    
    119100   381.8184       26959.177      1.1648021    
    119200   378.0462       26902.754      1.1672451    
    119300   374.69621      27072.475      1.1599275    
    119400   381.34445      26990.507      1.1634501    
    119500   379.14278      27098.683      1.1588057    
    119600   378.16713      27036.369      1.1614765    
    119700   377.3299       26994.774      1.1632662    
    119800   368.59683      26943.359      1.165486     
    119900   384.06798      27030.494      1.161729     
    120000   368.61539      27151.143      1.1565667    
    120100   375.40871      27069.552      1.1600527    
    120200   371.19476      27090.239      1.1591669    
    120300   373.49253      27162.733      1.1560732    
    120400   376.32057      27258.168      1.1520256    
    120500   370.26924      27161.374      1.156131     
    120600   371.00841      27222.917      1.1535174    
    120700   374.58815      27019.151      1.1622166    
    120800   370.85874      27059.242      1.1604947    
    120900   373.84536      27209.549      1.1540841    
    121000   361.24494      27337.575      1.1486793    
    121100   369.8469       27133.052      1.1573378    
    121200   375.00014      26998.899      1.1630884    
    121300   368.20668      26862.361      1.1690003    
    121400   368.39601      27081.445      1.1595433    
    121500   370.78479      26981.04       1.1638583    
    121600   367.79012      26873.102      1.168533     
    121700   368.74468      26796.679      1.1718657    
    121800   369.70898      26896.751      1.1675056    
    121900   367.70721      27167.629      1.1558649    
    122000   370.30035      26797.926      1.1718111    
    122100   369.15358      26552.285      1.1826518    
    122200   367.42821      26783.172      1.1724566    
    122300   369.83961      26999.935      1.1630438    
    122400   363.42139      26979.124      1.163941     
    122500   358.04861      26823.298      1.1707027    
    122600   364.92946      26737.702      1.1744505    
    122700   370.85073      26922.091      1.1664067    
    122800   374.58434      26932.289      1.165965     
    122900   374.80169      26988.426      1.1635398    
    123000   372.8376       27088.239      1.1592524    
    123100   369.01453      27088.342      1.159248     
    123200   376.73173      27187.269      1.1550298    
    123300   373.45911      26953.643      1.1650413    
    123400   372.44597      26699.165      1.1761457    
    123500   362.69506      26838.972      1.170019     
    123600   374.62703      26790.798      1.1721229    
    123700   370.84656      26775.095      1.1728103    
    123800   375.64246      26703.399      1.1759592    
    123900   377.71265      26748.726      1.1739665    
    124000   374.79048      26966.377      1.1644912    
    124100   375.41665      26851.103      1.1694904    
    124200   374.50842      26681.008      1.1769461    
    124300   374.58894      26664.239      1.1776862    
    124400   377.38564      26613.795      1.1799184    
    124500   372.23452      26998.255      1.1631162    
    124600   371.50639      26714.627      1.1754649    
    124700   374.89643      27095.788      1.1589295    
    124800   375.52847      26878.41       1.1683023    
    124900   377.05383      27113.01       1.1581933    
    125000   373.19242      27036.154      1.1614857    
    125100   375.35612      27103.723      1.1585902    
    125200   372.32159      26993.67       1.1633138    
    125300   370.2642       27061.264      1.160408     
    125400   370.96986      27104.571      1.1585539    
    125500   367.25334      26987.181      1.1635935    
    125600   375.41302      27001.848      1.1629614    
    125700   376.74537      27034.703      1.1615481    
    125800   375.16772      26954.429      1.1650073    
    125900   371.17865      27136.101      1.1572078    
    126000   375.66818      26948.673      1.1652562    
    126100   375.64639      26831.414      1.1703486    
    126200   378.01625      26770.881      1.1729949    
    126300   378.9311       26974.556      1.1641381    
    126400   373.60461      26862.119      1.1690108    
    126500   378.92598      27085.261      1.1593799    
    126600   371.74589      27086.862      1.1593114    
    126700   371.44006      26832.667      1.1702939    
    126800   375.94536      26836.426      1.17013      
    126900   369.35707      26745.615      1.174103     
    127000   370.79957      26735.225      1.1745593    
    127100   375.6579       26832.742      1.1702906    
    127200   371.13669      27105.991      1.1584932    
    127300   376.07552      27010.999      1.1625674    
    127400   371.51105      26873.917      1.1684976    
    127500   369.52122      26870.199      1.1686593    
    127600   368.68732      26971.314      1.164278     
    127700   368.35703      27057.382      1.1605745    
    127800   368.31237      27057.617      1.1605644    
    127900   369.00866      27270.676      1.1514972    
    128000   365.31065      27431.148      1.144761     
    128100   373.83913      27226.659      1.1533588    
    128200   370.46714      27421.969      1.1451442    
    128300   362.21678      27179.572      1.155357     
    128400   367.16679      27116.969      1.1580242    
    128500   370.53677      27022.439      1.1620753    
    128600   365.91185      26966.618      1.1644807    
    128700   362.02854      27204.364      1.1543041    
    128800   374.91031      27200.414      1.1544717    
    128900   371.88796      27032.567      1.1616398    
    129000   371.49952      27030.893      1.1617118    
    129100   374.14708      27257.008      1.1520746    
    129200   372.55338      27070.035      1.160032     
    129300   369.04506      26854.069      1.1693612    
    129400   371.68633      26869.443      1.1686922    
    129500   370.2893       26854.76       1.1693312    
    129600   374.93946      26826.764      1.1705514    
    129700   371.50877      27062.634      1.1603492    
    129800   378.01176      26895.541      1.1675581    
    129900   374.64903      27066.75       1.1601728    
    130000   377.13588      26891.231      1.1677452    
    130100   368.89983      27022.081      1.1620906    
    130200   380.1059       26834.338      1.1702211    
    130300   390.31694      26843.603      1.1698172    
    130400   379.76633      26842.08       1.1698835    
    130500   373.68517      27120.072      1.1578917    
    130600   379.51238      26967.969      1.1644224    
    130700   379.73499      26915.656      1.1666855    
    130800   374.25558      26952.586      1.165087     
    130900   376.18837      27078.598      1.1596652    
    131000   379.58624      26984.287      1.1637183    
    131100   377.21294      26966.469      1.1644872    
    131200   374.90832      27124.831      1.1576886    
    131300   379.85445      26905.877      1.1671096    
    131400   374.19892      27102.266      1.1586525    
    131500   381.71628      26936.962      1.1657628    
    131600   377.388        26896.35       1.167523     
    131700   383.07825      26799.177      1.1717564    
    131800   375.5389       26620.602      1.1796167    
    131900   381.04944      26689.59       1.1765676    
    132000   368.51395      26912.868      1.1668064    
    132100   379.69509      27005.007      1.1628254    
    132200   376.09945      26931.904      1.1659817    
    132300   371.74818      27313.697      1.1496835    
    132400   377.46987      27390.627      1.1464545    
    132500   368.78641      27046.42       1.1610449    
    132600   371.20192      27024.159      1.1620013    
    132700   368.9242       27053.792      1.1607285    
    132800   371.06579      27259.593      1.1519654    
    132900   372.77285      26882.085      1.1681426    
    133000   372.60271      26957.081      1.1648927    
    133100   372.58013      27097.629      1.1588507    
    133200   374.4497       27114.781      1.1581177    
    133300   367.46829      27046.476      1.1610425    
    133400   368.63605      27282.793      1.1509858    
    133500   367.37316      27263.143      1.1518154    
    133600   368.45593      27154.021      1.1564441    
    133700   379.11646      27110.658      1.1582938    
    133800   367.8759       27008.33       1.1626823    
    133900   374.09595      27145.631      1.1568015    
    134000   369.62426      27036.413      1.1614746    
    134100   372.78887      27167.318      1.1558781    
    134200   374.2268       27027.909      1.1618401    
    134300   377.75422      27110.754      1.1582897    
    134400   370.25801      26995.807      1.1632217    
    134500   370.76952      26669.303      1.1774626    
    134600   372.39581      26627.675      1.1793034    
    134700   369.94344      26930.434      1.1660453    
    134800   369.58911      26866.316      1.1688282    
    134900   374.52951      26945.313      1.1654015    
    135000   376.97313      26823.066      1.1707128    
    135100   374.60437      27050.909      1.1608522    
    135200   369.93508      27072.064      1.1599451    
    135300   370.44331      26881.422      1.1681713    
    135400   367.58406      26959.25       1.164799     
    135500   376.88905      26838.629      1.170034     
    135600   373.02072      26842.17       1.1698796    
    135700   378.16414      27151.468      1.1565529    
    135800   374.97383      26881.887      1.1681511    
    135900   369.65248      26951.242      1.1651451    
    136000   373.46729      26978.571      1.1639648    
    136100   372.86715      27063.433      1.160315     
    136200   369.45687      26948.587      1.1652599    
    136300   377.77505      27315.474      1.1496087    
[...]
   1167700   439.32866      27022.005      1.1620939    
   1167800   442.32907      27162.097      1.1561003    
   1167900   453.19347      26863.844      1.1689358    
   1168000   445.43039      27403.009      1.1459364    
   1168100   451.25987      27195.437      1.1546829    
   1168200   444.99711      27316.885      1.1495493    
   1168300   446.80394      27115.714      1.1580778    
   1168400   450.89569      27016.489      1.1623312    
   1168500   446.52886      27219.52       1.1536613    
   1168600   445.89958      27367.453      1.1474253    
   1168700   441.18669      27004.316      1.1628551    
   1168800   436.91052      27329.13       1.1490343    
   1168900   441.66549      27196.125      1.1546537    
   1169000   440.27604      27236.894      1.1529254    
   1169100   443.81683      27264.873      1.1517423    
   1169200   445.66775      27025.909      1.161926     
   1169300   442.7361       26939.14       1.1656685    
   1169400   445.34199      26863.815      1.168937     
   1169500   448.14068      27121.179      1.1578445    
   1169600   439.31576      27012.393      1.1625074    
   1169700   446.6289       27148.796      1.1566667    
   1169800   435.69866      26924.121      1.1663188    
   1169900   447.14365      27143.241      1.1569034    
   1170000   441.61007      27242.337      1.1526951    
   1170100   440.26911      26978.361      1.1639739    
   1170200   434.74473      26911.665      1.1668586    
   1170300   450.60031      26744.822      1.1741378    
   1170400   439.9585       26941.094      1.165584     
   1170500   444.88935      26950.623      1.1651719    
   1170600   439.6219       27396.403      1.1462128    
   1170700   438.96518      27481.783      1.1426517    
   1170800   440.07187      27462.656      1.1434476    
   1170900   441.6088       27077.039      1.159732     
   1171000   443.3261       27147.756      1.156711     
   1171100   442.91926      26897.886      1.1674563    
   1171200   439.76975      27024.646      1.1619803    
   1171300   438.04583      26959.374      1.1647936    
   1171400   436.82636      27242.167      1.1527023    
   1171500   439.92353      27360.496      1.147717     
   1171600   439.30178      27532.102      1.1405634    
   1171700   439.20051      27389.441      1.1465042    
   1171800   431.3621       27212.204      1.1539715    
   1171900   448.87003      27208.559      1.1541261    
   1172000   448.07704      27262.484      1.1518432    
   1172100   431.56988      27366.971      1.1474455    
   1172200   439.48331      27233.879      1.1530531    
   1172300   432.47924      27229.623      1.1532333    
   1172400   430.18165      27217.617      1.153742     
   1172500   435.67097      27052.111      1.1608006    
   1172600   430.59991      26926.471      1.166217     
   1172700   439.33872      27290.114      1.150677     
   1172800   433.14945      26992.302      1.1633727    
   1172900   426.48703      27030.683      1.1617208    
   1173000   432.64747      27133.464      1.1573203    
   1173100   421.7335       27438.903      1.1444374    
   1173200   424.43873      27451.362      1.143918     
   1173300   425.89426      27332.31       1.1489006    
   1173400   423.96883      27393.212      1.1463463    
   1173500   431.85589      27420.31       1.1452134    
   1173600   417.76474      27377.341      1.1470108    
   1173700   431.8215       27667.221      1.1349932    
   1173800   430.16314      27305.316      1.1500364    
   1173900   434.86403      27227.717      1.153314     
   1174000   431.68829      27328.069      1.1490789    
   1174100   434.43355      27244.833      1.1525895    
   1174200   441.17328      27450.707      1.1439453    
   1174300   442.61287      27457.961      1.1436431    
   1174400   434.88105      27260.938      1.1519085    
   1174500   433.35791      27377.929      1.1469862    
   1174600   435.36674      27498.147      1.1419717    
   1174700   436.04434      27364.925      1.1475313    
   1174800   438.57585      27203.575      1.1543375    
   1174900   437.81659      27443.467      1.1442471    
   1175000   444.67253      27426.78       1.1449433    
   1175100   439.93874      27455.648      1.1437395    
   1175200   432.35578      27251.201      1.1523201    
   1175300   441.05214      27172.445      1.15566      
   1175400   446.14539      27113.154      1.1581872    
   1175500   440.30983      27397.622      1.1461618    
   1175600   443.40639      27211.35       1.1540077    
   1175700   440.66878      27204.183      1.1543117    
   1175800   445.70447      27404.922      1.1458565    
   1175900   439.32526      27293.787      1.1505222    
   1176000   435.97976      27232.251      1.153122     
   1176100   435.10671      27186.766      1.1550512    
   1176200   443.63818      26980.563      1.1638789    
   1176300   450.58873      27218.069      1.1537228    
   1176400   448.67309      27039.853      1.1613268    
   1176500   437.81732      27230.397      1.1532005    
   1176600   445.0625       27526.8        1.1407831    
   1176700   442.79492      27417.319      1.1453384    
   1176800   437.65935      27044.225      1.1611391    
   1176900   443.05409      27108.026      1.1584063    
   1177000   443.30913      27262.184      1.1518559    
   1177100   446.36744      27207.269      1.1541808    
   1177200   442.09869      27375.546      1.147086     
   1177300   451.44996      27046.259      1.1610518    
   1177400   453.9772       27178.344      1.1554091    
   1177500   444.31404      27089.136      1.1592141    
   1177600   444.95662      27006.127      1.1627771    
   1177700   443.45928      26934.415      1.165873     
   1177800   452.38756      26849.246      1.1695713    
   1177900   449.31305      27104.779      1.158545     
   1178000   451.56998      27184.671      1.1551403    
   1178100   444.44441      27167.595      1.1558663    
   1178200   447.22001      27278.464      1.1511685    
   1178300   441.81476      27014.595      1.1624127    
   1178400   445.56958      26844.432      1.169781     
   1178500   445.236        27170.495      1.1557429    
   1178600   442.14753      27188.332      1.1549847    
   1178700   438.08217      27124.194      1.1577158    
   1178800   439.4576       27233.338      1.153076     
   1178900   446.91716      27286.389      1.1508341    
   1179000   436.02034      27672.097      1.1347932    
   1179100   434.01992      27701.238      1.1335994    
   1179200   445.22124      27710.043      1.1332392    
   1179300   439.92005      27459.38       1.143584     
   1179400   435.50541      27756.299      1.1313507    
   1179500   427.79949      27700.027      1.133649     
   1179600   435.31763      27636.848      1.1362405    
   1179700   435.03141      27657.84       1.1353782    
   1179800   443.52601      27239.854      1.1528001    
   1179900   427.0641       27480.965      1.1426858    
   1180000   440.82428      27277.179      1.1512227    
   1180100   436.49781      27142.205      1.1569476    
   1180200   431.3634       27201.608      1.154421     
   1180300   440.50676      27396.398      1.146213     
   1180400   430.67823      27316.456      1.1495674    
   1180500   433.32336      27185.77       1.1550935    
   1180600   433.48567      26974.818      1.1641267    
   1180700   437.97828      27018.533      1.1622433    
   1180800   438.09285      27138.169      1.1571196    
   1180900   435.32418      27349.612      1.1481738    
   1181000   439.43646      27285.212      1.1508838    
   1181100   434.76191      27222.875      1.1535192    
   1181200   435.17436      27508.281      1.1415511    
   1181300   439.00565      27338.763      1.1486294    
   1181400   442.40755      27481.545      1.1426617    
   1181500   437.22045      27529.574      1.1406681    
   1181600   441.48916      27484.934      1.1425208    
   1181700   441.09102      27680.815      1.1344358    
   1181800   443.04704      27633.162      1.1363921    
   1181900   435.925        27710.766      1.1332096    
   1182000   452.10023      27600.789      1.137725     
   1182100   450.11534      27511.252      1.1414278    
   1182200   445.49281      27714.229      1.133068     
   1182300   442.02434      27526.066      1.1408135    
   1182400   447.75678      27548.144      1.1398992    
   1182500   437.53655      27571.969      1.1389142    
   1182600   437.49697      27138.076      1.1571236    
   1182700   448.90564      27512.549      1.141374     
   1182800   451.74241      27631.818      1.1364474    
   1182900   448.03521      27650.613      1.1356749    
   1183000   445.48982      27615.57       1.137116     
   1183100   450.69928      27574.405      1.1388136    
   1183200   448.63325      27454.783      1.1437755    
   1183300   448.51494      27240.853      1.1527579    
   1183400   442.02951      27410.166      1.1456373    
   1183500   441.80132      27281.175      1.1510541    
   1183600   449.43312      27441.809      1.1443162    
   1183700   440.27115      27372.803      1.147201     
   1183800   441.02214      27521.1        1.1410193    
   1183900   438.63187      27562.956      1.1392866    
   1184000   442.00602      27571.954      1.1389148    
   1184100   444.06737      27328.434      1.1490636    
   1184200   442.63595      27476.716      1.1428625    
   1184300   442.89886      27357.908      1.1478256    
   1184400   437.97281      26986.365      1.1636286    
   1184500   441.83641      27402.403      1.1459618    
   1184600   445.23087      27266.272      1.1516832    
   1184700   443.47672      26986.57       1.1636198    
   1184800   435.8734       27547.459      1.1399276    
   1184900   434.59266      27514.858      1.1412782    
   1185000   447.55864      27082.898      1.1594811    
   1185100   441.43989      27449.563      1.143993     
   1185200   438.73851      27524.757      1.1408677    
   1185300   439.38441      27269.438      1.1515495    
   1185400   431.67593      27247.143      1.1524917    
   1185500   443.48053      27156.933      1.1563201    
   1185600   431.9221       26959.215      1.1648005    
   1185700   437.06589      27130.864      1.1574312    
   1185800   436.58576      27112.321      1.1582228    
   1185900   442.59729      27110.507      1.1583003    
   1186000   435.11463      27236.006      1.152963     
   1186100   439.73064      27132.742      1.157351     
   1186200   432.61874      27003.593      1.1628863    
   1186300   436.70131      27078.175      1.1596833    
   1186400   432.10522      27284.615      1.1509089    
   1186500   437.43426      27372.179      1.1472271    
   1186600   435.95439      27348.706      1.1482118    
   1186700   435.13933      27096.702      1.1588904    
   1186800   441.11696      27282.778      1.1509864    
   1186900   439.3217       27058.255      1.1605371    
   1187000   424.64501      27234.576      1.1530235    
   1187100   435.08067      27351.35       1.1481008    
   1187200   435.76784      27180.233      1.1553289    
   1187300   432.1113       27308.778      1.1498906    
   1187400   440.4664       27334.548      1.1488065    
   1187500   436.01231      27194.081      1.1547405    
   1187600   427.6081       27333.457      1.1488524    
   1187700   433.22971      27319.82       1.1494259    
   1187800   429.9652       27142.199      1.1569478    
   1187900   433.00489      27319.116      1.1494555    
   1188000   433.40641      27165.441      1.1559579    
   1188100   426.86976      27347.566      1.1482597    
   1188200   433.55317      27703.412      1.1335104    
   1188300   443.48987      27428.286      1.1448804    
   1188400   446.26267      27509.892      1.1414842    
   1188500   443.24985      27614.68       1.1371527    
   1188600   444.27403      27701.1        1.1336051    
   1188700   441.65768      27444.877      1.1441883    
   1188800   443.94143      27417.687      1.145323     
   1188900   442.18244      27606.673      1.1374825    
   1189000   441.43057      27472.8        1.1430254    
   1189100   443.23668      27504.943      1.1416896    
   1189200   440.1162       27551.198      1.1397728    
   1189300   439.93119      27378.174      1.146976     
   1189400   448.79398      27566.624      1.1391351    
   1189500   433.64043      27479.821      1.1427333    
   1189600   445.469        27719.04       1.1328714    
   1189700   439.43537      27865.839      1.1269034    
   1189800   451.51269      27734.526      1.1322388    
   1189900   441.13326      27401.791      1.1459874    
   1190000   444.4094       27413.107      1.1455143    
   1190100   451.77451      27405.907      1.1458153    
   1190200   446.05046      27684.292      1.1342933    
   1190300   445.44759      27348.16       1.1482347    
   1190400   446.58267      27333.784      1.1488386    
   1190500   437.10591      27361.409      1.1476787    
   1190600   445.01713      27505.015      1.1416866    
   1190700   449.23837      27283.405      1.15096      
   1190800   446.99675      27542.025      1.1401525    
   1190900   452.72116      27448.724      1.1440279    
   1191000   440.44633      27675.314      1.1346613    
   1191100   450.85617      27431.854      1.1447315    
   1191200   434.65477      27808.304      1.1292349    
   1191300   446.76125      27608.054      1.1374256    
   1191400   445.78409      27454.186      1.1438004    
   1191500   450.05764      27186.823      1.1550488    
   1191600   443.17081      27424.954      1.1450195    
   1191700   446.08771      27338.899      1.1486237    
   1191800   449.14573      27511.798      1.1414051    
   1191900   442.72046      27305.551      1.1500265    
   1192000   445.12175      27475.751      1.1429026    
   1192100   431.67548      27588.062      1.1382499    
   1192200   446.68131      27428.728      1.144862     
   1192300   435.62507      27074.535      1.1598392    
   1192400   443.10381      27189.257      1.1549454    
   1192500   446.55835      27265.584      1.1517123    
   1192600   435.86863      27101.912      1.1586676    
   1192700   436.33906      27065.75       1.1602157    
   1192800   444.59013      27413.531      1.1454966    
   1192900   441.87992      27423.078      1.1450978    
   1193000   442.33528      27308.287      1.1499113    
   1193100   441.08042      27354.756      1.1479579    
   1193200   436.95825      27080.21       1.1595961    
   1193300   435.21291      27325.07       1.149205     
   1193400   433.97135      27339.428      1.1486015    
   1193500   437.72364      27287.957      1.150768     
   1193600   431.59067      27527.45       1.1407561    
   1193700   432.55655      27413.951      1.1454791    
   1193800   442.24888      27335.417      1.14877      
   1193900   436.7404       27472.369      1.1430433    
   1194000   441.31718      27307.446      1.1499467    
   1194100   431.36554      27357.654      1.1478363    
   1194200   434.99719      27341.781      1.1485026    
   1194300   439.84496      27464.453      1.1433727    
   1194400   437.10987      27409.334      1.145672     
   1194500   447.38131      27389.666      1.1464947    
   1194600   433.81966      27247.601      1.1524724    
   1194700   438.04866      27417.41       1.1453346    
   1194800   436.78768      27219.141      1.1536774    
   1194900   444.15748      27168.621      1.1558226    
   1195000   439.60099      27294.031      1.1505119    
   1195100   442.83868      26997.023      1.1631693    
   1195200   443.09284      27316.354      1.1495717    
   1195300   450.15485      27201.085      1.1544432    
   1195400   447.15673      27509.891      1.1414842    
   1195500   439.18026      27675.686      1.134646     
   1195600   441.06513      27860.486      1.1271199    
   1195700   436.07398      27721.837      1.1327571    
   1195800   446.12334      27294.466      1.1504936    
   1195900   443.48459      27274.338      1.1513426    
   1196000   445.9753       27267.92       1.1516136    
   1196100   441.7559       27403.698      1.1459077    
   1196200   442.22637      27123.362      1.1577513    
   1196300   442.07755      27122.008      1.1578091    
   1196400   434.69106      27297.403      1.1503698    
   1196500   439.77047      27538.243      1.140309     
   1196600   441.3133       27547.513      1.1399253    
   1196700   441.26119      27920.482      1.1246979    
   1196800   447.69687      27703.858      1.1334922    
   1196900   448.00827      27535.689      1.1404148    
   1197000   442.68666      27402.376      1.145963     
   1197100   443.69209      27371.041      1.1472749    
   1197200   436.22344      27500.199      1.1418865    
   1197300   450.98251      27278.311      1.1511749    
   1197400   450.58753      27144.606      1.1568452    
   1197500   440.17872      27304.935      1.1500525    
   1197600   443.65281      27120.021      1.1578939    
   1197700   437.325        27737.203      1.1321295    
   1197800   444.64598      27462.482      1.1434548    
   1197900   440.1112       27475.053      1.1429316    
   1198000   447.60185      27475.12       1.1429288    
   1198100   440.99572      27509.831      1.1414867    
   1198200   449.41519      27389.015      1.146522     
   1198300   442.38356      27347.953      1.1482434    
   1198400   444.27133      27421.315      1.1451715    
   1198500   439.16715      27161.39       1.1561304    
   1198600   441.1655       27147.039      1.1567415    
   1198700   449.11309      27553.64       1.1396718    
   1198800   438.80387      27531.467      1.1405897    
   1198900   432.74248      27348.211      1.1482326    
   1199000   441.3184       27519.478      1.1410866    
   1199100   438.48072      27473.66       1.1429896    
   1199200   442.34456      27389.796      1.1464893    
   1199300   435.11771      27280.314      1.1510904    
   1199400   435.06885      27341.737      1.1485045    
   1199500   439.1166       27228.162      1.1532951    
   1199600   435.40858      27497.208      1.1420107    
   1199700   435.1402       27478.343      1.1427948    
   1199800   425.13367      27387.9        1.1465687    
   1199900   434.82654      27599.212      1.13779      
   1200000   432.06704      27426.754      1.1449444    
Loop time of 1157.56 on 8 procs for 150000 steps with 2988 atoms

Performance: 11.196 ns/day, 2.144 hours/ns, 129.583 timesteps/s
382.6% CPU use with 1 MPI tasks x 8 OpenMP threads

MPI task timing breakdown:
Section |  min time  |  avg time  |  max time  |%varavg| %total
---------------------------------------------------------------
Pair    | 669.72     | 669.72     | 669.72     |   0.0 | 57.86
Bond    | 119.93     | 119.93     | 119.93     |   0.0 | 10.36
Neigh   | 122.28     | 122.28     | 122.28     |   0.0 | 10.56
Comm    | 30.125     | 30.125     | 30.125     |   0.0 |  2.60
Output  | 0.6667     | 0.6667     | 0.6667     |   0.0 |  0.06
Modify  | 211.49     | 211.49     | 211.49     |   0.0 | 18.27
Other   |            | 3.347      |            |       |  0.29

Nlocal:           2988 ave        2988 max        2988 min
Histogram: 1 0 0 0 0 0 0 0 0 0
Nghost:          14323 ave       14323 max       14323 min
Histogram: 1 0 0 0 0 0 0 0 0 0
Neighs:    1.15917e+06 ave 1.15917e+06 max 1.15917e+06 min
Histogram: 1 0 0 0 0 0 0 0 0 0

Total # of neighbors = 1159168
Ave neighs/atom = 387.9411
Ave special neighs/atom = 12.156627
Neighbor list builds = 8761
Dangerous builds = 2
unfix			1

#final
write_data		thermal_expansion_after_glass_transition_2.data
System init for write_data ...
Generated 153 of 153 mixed pair_coeff terms from geometric mixing rule
Last active /omp style is angle_style harmonic/omp

#parameter
neighbor		2.0 bin
Total wall time: 2:21:31
