LAMMPS data file via write_data, version 23 Jun 2022, timestep = 1200000

2988 atoms
18 atom types
3044 bonds
16 bond types
5800 angles
31 angle types

29.974884268727408 60.132115731265976 xlo xhi
27.060384268727404 57.21761573126597 ylo yhi
29.94388626872741 60.10111773126598 zlo zhi

Masses

1 1.00794
2 1.00794
3 12.0107
4 12.0107
5 1.00794
6 1.00794
7 1.00794
8 1.00794
9 15.9994
10 12.0107
11 12.0107
12 1.00794
13 15.9994
14 15.9994
15 12.0107
16 12.0107
17 1.00794
18 15.9994

Pair Coeffs # lj/cut/omp

1 0.038 2.44997
2 0.038 2.44997
3 0.039 3.87541
4 0.039 3.87541
5 0.038 2.44997
6 0.038 2.44997
7 0 0
8 0.038 2.44997
9 0.228 2.85978
10 0.148 3.61705
11 0.039 3.87541
12 0.038 2.44997
13 0.228 2.85978
14 0.228 2.85978
15 0.148 3.61705
16 0.148 3.61705
17 0 0
18 0.228 2.85978

Bond Coeffs # harmonic/omp

1 340.618 1.105
2 340.618 1.105
3 322.716 1.526
4 340.618 1.105
5 340.618 1.105
6 340.618 1.105
7 384 1.42
8 540.634 0.96
9 283.092 1.52
10 340.618 1.105
11 615.322 1.23
12 322.716 1.526
13 340.618 1.105
14 384 1.42
15 540.634 0.96
16 384 1.42

Angle Coeffs # harmonic/omp

1 39.5 106.4
2 44.4 110
3 39.5 106.4
4 44.4 110
5 39.5 106.4
6 46.6 110.5
7 44.4 110
8 44.4 110
9 70 109.5
10 46.6 110.5
11 44.4 110
12 58.5 106
13 39.5 106.4
14 57 109.5
15 57 109.5
16 46.6 110.5
17 45 109.5
18 50 120
19 68 120
20 46.6 110.5
21 44.4 110
22 55 120
23 39.5 106.4
24 70 109.5
25 57 109.5
26 70 109.5
27 57 109.5
28 80 109.5
29 70 106
30 80 109.5
31 58.5 106

Atoms # full

986 2 4 0 31.93245373808331 28.985858444906548 32.56651612199039 0 0 1
985 2 3 0 33.07636168178818 30.06480543989491 32.63684676677885 0 0 1
979 2 4 0 34.38985070106895 29.819435025889874 31.803863354374606 0 0 1
984 2 8 0 32.56560060172662 30.90642969132287 32.12065097621583 0 0 1
987 2 1 0 33.33860914984362 30.500428909224382 33.604944406959845 0 0 1
988 2 5 0 31.527954129809913 28.806450759843802 31.554982780562046 0 0 1
981 2 5 0 34.10230933855249 29.013627124515335 31.07171415568837 0 0 1
982 2 9 0 34.707876593991635 31.029858317620082 31.10445593220115 0 0 1
980 2 1 0 35.34702943038949 28.279701525984443 33.01363103362543 0 0 1
978 2 3 0 35.51453125157075 29.270492022722788 32.593719959263865 0 0 1
992 2 3 0 32.41782128693461 27.620032559227226 33.1235472379253 0 0 1
991 2 8 0 32.49131119664605 27.8393374995121 34.22149564625223 0 0 1
994 2 1 0 33.467286441774384 27.4042114445894 32.82640783460882 0 0 1
977 2 8 0 35.71851325927547 30.013169843226542 33.46665453190245 0 0 1
989 2 14 0 30.855123866622858 29.401170711823802 33.520576337822106 0 0 1
973 2 1 0 35.965127584076626 27.4985792687542 30.468786603432942 0 0 1
1760 3 5 0 30.675631758949038 32.234805899731384 33.42245924654724 1 0 0
983 2 7 0 34.770616616899574 30.682958791982674 30.221156366556055 0 0 1
1952 3 8 0 36.46523512981484 33.426268278263024 30.50641647740447 0 0 0
974 2 5 0 37.10098883116881 29.921414743048278 31.04387080272335 0 0 1
971 2 3 0 36.881173009712136 27.834058296800496 30.953347183669297 0 0 1
433 1 5 0 33.54820576354291 32.53965479329004 35.3305588459532 0 0 0
998 2 8 0 31.007765447350167 57.177725792422024 31.065347254307596 0 -1 1
2035 3 7 0 33.330047131685745 56.04880771040295 36.46303498526021 0 0 0
2034 3 9 0 33.94543791212554 56.54200451903583 37.05457418975143 0 0 0
972 2 4 0 36.856794568717476 29.123276160650924 31.756873609680476 0 0 1
975 2 9 0 37.96310773393647 29.02513837407225 32.656592422456065 0 0 1
1939 3 3 0 40.99797570582605 31.778716192674544 31.171164309469717 0 0 0
1941 3 1 0 40.1444503289735 31.03018989524806 31.100554407156462 0 0 0
976 2 7 0 38.37255472312472 28.20577286161668 32.36720658207868 0 0 1
1948 3 1 0 38.207076833148385 32.2709840262399 31.161973226137025 0 0 0
653 1 8 0 39.52352696061417 29.507106943804423 34.65655687775951 0 0 0
1933 3 4 0 41.651911869155306 31.642944527104447 59.96684902268268 0 0 -1
1936 3 9 0 41.38244499884976 30.381255693055643 59.555201876585755 0 0 -1
665 1 9 0 40.876889151111996 27.511220530647574 33.13313336623625 0 0 0
1938 3 8 0 41.647680224740796 31.449774532648718 32.06599332860694 0 0 0
968 2 9 0 39.07430601938965 28.298582105305663 29.953997490481807 0 0 1
666 1 7 0 41.29501630836648 27.21316414170816 32.28465001932728 0 0 0
1945 3 8 0 38.68709715075778 32.4254182728385 32.73661590246989 0 0 0
660 1 8 0 38.74235753700065 27.20699406373389 34.5582243488443 0 0 0
661 1 3 0 39.72783597108106 57.04319668455349 35.10138301778822 0 -1 0
435 1 7 0 35.572950930860216 34.02720504375249 35.44490017800494 0 0 0
662 1 4 0 40.60818883574676 56.59884896474368 33.963521338864815 0 -1 0
646 1 8 0 39.611876534911254 31.824406979265678 35.136906409839874 0 0 0
1935 3 5 0 41.09805906770576 32.438458014462 59.36820742053574 0 0 -1
664 1 5 0 41.657479559721295 56.33541862236503 34.33538386900631 0 -1 0
1934 3 1 0 43.492269464300115 30.972693009240537 30.567093584476446 0 0 0
1932 3 3 0 43.16603060724261 31.888556690213143 30.048001324155393 0 0 0
652 1 7 0 41.78604877293956 29.47835769252417 34.44372890287519 0 0 0
651 1 9 0 41.827287605605434 30.420809650811595 34.61151670298139 0 0 0
1700 3 8 0 43.811844374697756 28.88524040630602 34.075634497683964 0 0 0
1705 3 9 0 43.117280497426115 28.612128010745433 31.78498125254272 0 0 0
1704 3 5 0 44.606468659636846 29.859759962551106 32.09204294680784 0 0 0
1697 3 5 0 45.77560634199606 29.930509975545696 34.29263418249113 0 0 0
1701 3 3 0 44.66499062049996 28.314972434104394 33.597797620733346 0 0 0
1702 3 4 0 44.48555653404346 28.809218748545984 32.125416403913235 0 0 0
1695 3 4 0 45.881666315132804 28.845684451876828 34.31244165559929 0 0 0
1709 3 4 0 46.83356448486242 27.81358752569032 31.234321840373173 0 0 0
1706 3 7 0 42.666148749589425 28.789990378942317 32.65409800550622 0 0 0
1711 3 5 0 47.385327943315815 28.725518058549277 31.391713449998036 0 0 0
1698 3 14 0 47.10778625588625 28.6591068991168 33.53572064889616 0 0 0
1914 3 5 0 47.66162755065744 30.885393830436094 31.522049507749575 0 0 0
1912 3 4 0 47.89050428030812 31.891822596472572 31.597116734190884 0 0 0
1918 3 3 0 47.188123853906006 32.47605181274622 30.373694341994597 0 0 0
1708 3 3 0 45.3392307740655 28.105677538192573 31.09461927393745 0 0 0
1921 3 5 0 46.03697184032091 30.78227241878766 30.021153228767062 0 0 0
2914 8 16 0 47.49216769844507 27.260774984897953 33.39887032534499 3 5 8
1931 3 8 0 43.327964937206524 32.765029793497845 30.737791122091803 0 0 0
1907 3 5 0 47.173949071841896 31.42470840166255 34.756479997474244 0 0 0
1703 3 1 0 44.57628328783798 27.250812816290807 33.72094025508523 0 0 0
1707 3 8 0 44.9873933797638 28.424419289600948 30.031120176781773 0 0 0
1712 3 14 0 46.893434759616284 56.971628946577056 32.25169662698798 0 -1 0
2926 8 12 0 47.07594840142734 56.64938574576685 34.00841551626651 3 4 8
1715 3 3 0 47.5207971499631 27.218650043786305 60.097009538388434 0 0 -1
1905 3 4 0 48.01584597211601 31.989974583169996 34.174703226307074 0 0 0
1908 3 9 0 49.08278824306893 31.127983727212747 33.93954494180123 0 0 0
1909 3 7 0 49.86413192935399 31.576479252536227 33.832232333723425 0 0 0
1915 3 9 0 49.28305075986012 32.1030968173658 31.431846400977783 0 0 0
2917 8 12 0 49.24641308819105 27.897723824860194 32.63224204885055 3 5 8
2921 8 12 0 50.823081384838645 27.478002270209082 34.456360895106435 3 5 8
1736 3 3 0 52.49056322623838 29.978894393835766 31.58637180428369 0 0 0
1742 3 8 0 53.193996696919115 32.16503811974823 33.347185041968466 0 0 0
1735 3 8 0 52.01700948402958 28.959160861866934 31.925480585346964 0 0 0
2916 8 11 0 49.67393808504843 27.51206585567385 34.65404956054499 3 5 8
1733 3 9 0 54.08263854501944 29.380151225675714 30.003684986713974 0 0 0
1740 3 9 0 53.34720732496854 29.719004161585417 33.770875673019965 0 0 0
1741 3 7 0 52.8123719150607 28.905535322221965 33.65158239489431 0 0 0
1730 3 4 0 52.781695817407794 29.8395995407711 30.10615508974601 0 0 0
1738 3 1 0 51.71645898637709 30.744132097080772 31.838816504885358 0 0 0
2915 8 11 0 48.985463320078765 27.227629035403247 33.400450163606955 3 5 8
2918 8 12 0 49.23556093591634 56.34146249682638 33.10657944909863 3 4 8
1734 3 7 0 53.98087536000683 28.48774791411498 30.07824340235256 0 0 0
1902 3 7 0 48.52250973978437 30.95086290951274 37.02347900131415 0 0 0
1737 3 4 0 53.60318527156141 30.26689571443441 32.593220765756314 0 0 0
1743 3 3 0 54.04881597689399 31.737739736250354 32.82714983226866 0 0 0
1747 3 9 0 54.861543545965276 32.889130474710484 34.697491256455606 0 0 0
1748 3 7 0 55.56370085426646 33.53037327565008 34.594696864302215 0 0 0
1725 3 5 0 50.1019112433858 29.398254138416995 30.429218847197767 0 0 0
3018 14 12 0 30.313057234858878 30.687902446925904 31.986965569997587 -8 -2 2
1739 3 5 0 54.4462802528007 29.706094424954024 32.198738064828824 0 0 0
3012 14 16 0 59.997569619940634 30.124419254218175 32.775049925023104 -9 -2 2
1758 3 4 0 59.802026638621804 32.206748236510784 33.896383135534315 0 0 0
3014 14 12 0 59.202587515721795 28.544886904479696 31.47607449419581 -9 -2 2
3009 14 11 0 58.881775617930714 29.166992753697038 32.33527633118498 -9 -2 2
1761 3 14 0 59.23007680852909 30.996193051589206 33.64153706656504 0 0 0
1746 3 5 0 55.481104622944244 30.888828216552916 34.258348605232804 0 0 0
3010 14 12 0 58.893483700314874 28.706356016283408 34.35770427377027 -9 -2 2
3013 14 12 0 57.91914073705942 29.768479418390687 32.12250157205001 -9 -2 2
3011 14 12 0 57.3477801077627 28.576744475128812 33.93332285383572 -9 -2 2
3006 14 11 0 58.3461990777118 28.24925479053524 33.537384872293615 -9 -2 2
1744 3 4 0 55.255230243858776 31.84273197167555 33.77147476879167 0 0 0
1752 3 1 0 56.74708777457977 31.691635411924633 32.32416037473615 0 0 0
1745 3 1 0 54.16138795201846 32.196019338208046 31.83346698088293 0 0 0
1764 3 3 0 59.90851847206208 32.55898913740902 35.36611761939631 0 0 0
1750 3 3 0 56.37424232997033 32.472620268385015 32.90672265907881 0 0 0
1753 3 5 0 57.38139384402756 32.577989935750786 34.68395095627917 0 0 0
1751 3 4 0 57.448361545979324 33.16998901034671 33.77070619559036 0 0 0
1757 3 3 0 58.847622084601184 33.184839875860064 33.21032881162054 0 0 0
1773 3 1 0 58.06299321550925 30.832896426746117 35.874217284918146 0 0 0
1759 3 1 0 58.96949759718899 32.98506772192826 32.167198881132194 0 0 0
1749 3 8 0 55.90515452343922 33.2890308238308 32.35259018379679 0 0 0
1766 3 1 0 30.566558307109403 33.28105408506425 35.48895969501056 1 0 0
1960 3 3 0 34.13776237812424 34.46438228120301 31.09522498254652 0 0 0
1963 3 5 0 32.672197186932834 35.79387130517055 31.825366875014417 0 0 0
1961 3 4 0 33.12710908941476 35.565997941232446 30.878630550050758 0 0 0
2971 11 12 0 30.98470868451113 36.6816474264717 30.421176052422485 1 0 1
1959 3 8 0 33.53825561043417 33.56772880204834 31.514638397150048 0 0 0
1954 3 4 0 35.3895477392727 34.61773391285439 31.951309702339067 0 0 0
1958 3 7 0 34.43145244034012 33.75444502350264 33.31547202908371 0 0 0
1957 3 9 0 35.20224159425967 33.495641621259615 32.80691307103341 0 0 0
443 1 8 0 34.762058985828425 36.29831056419582 34.94172749435791 0 0 0
1956 3 5 0 35.466227039284014 35.49796711039645 32.633815166207675 0 0 0
1967 3 3 0 33.97137341860673 36.785840992331075 30.314410343740512 0 0 0
1955 3 1 0 36.72583316919207 35.00204540862032 30.31607847129647 0 0 0
1962 3 1 0 34.38246238130126 34.04264188370382 30.118515640459623 0 0 0
1953 3 3 0 36.58742024479242 34.2897920762292 31.100164878258013 0 0 0
2984 12 12 0 60.00379249090318 38.651504988874066 32.6719893286216 0 0 0
1970 3 5 0 34.61193654090103 37.66775216412369 32.10337154377809 0 0 0
2983 12 12 0 59.99615326577738 39.16600604530112 34.264566555543865 0 0 0
1972 3 7 0 32.32714809546682 39.10889021618598 31.172725036538267 0 0 0
448 1 9 0 33.251644339487086 38.206230041401625 36.093860984465756 0 0 0
442 1 7 0 33.51446185472985 34.4765349444694 34.33388924160392 0 0 0
441 1 9 0 32.88926308544661 34.98204821282542 34.8657549632503 0 0 0
449 1 7 0 33.042738460650796 38.94275762337304 36.65309728751207 0 0 0
1942 3 5 0 40.528651157376366 33.99576081304286 30.99019548967762 0 0 0
1940 3 4 0 40.271275459468114 33.08746983525194 31.529917148611496 0 0 0
1946 3 3 0 38.739507863113474 32.91559790627651 31.80549592129292 0 0 0
1944 3 7 0 40.87063418467703 34.397338950879124 32.7434077639809 0 0 0
1947 3 4 0 37.932971290176724 34.302562786446956 31.96038955492424 0 0 0
626 1 3 0 40.263755543531495 37.90150997308852 34.3400236721058 0 0 0
1943 3 9 0 40.82239459785015 33.41738728112565 32.76058582937757 0 0 0
1949 3 5 0 37.687927384108306 34.46440143747896 32.98682277725556 0 0 0
625 1 8 0 40.241819473471054 37.01656028582932 33.60668495925808 0 0 0
627 1 4 0 41.14992274984776 37.546086384421145 35.527033142323035 0 0 0
628 1 1 0 39.21807354660393 38.02081284173617 34.585828096772076 0 0 0
623 1 14 0 40.761396216991294 38.81841418952464 32.252819075828704 0 0 0
1951 3 7 0 38.624012739516125 35.437938482721975 30.548951815034705 0 0 0
1950 3 9 0 38.69649967867582 35.384083593984556 31.476957112578884 0 0 0
926 2 14 0 42.07754949590361 37.11890130362535 31.382363662297255 0 0 1
3019 15 16 0 42.09966215219775 38.49187852484326 31.8036268768894 27 -21 0
636 1 5 0 40.81933857398801 35.19747184468534 34.817585355106516 0 0 0
928 2 8 0 41.863480337020846 35.54174909839801 59.84169195814713 0 0 0
629 1 5 0 42.135693287139055 37.09720801275467 35.247065075772085 0 0 0
450 1 8 0 35.567689353282944 38.51219831524353 34.68733111766402 0 0 0
1920 3 1 0 46.47937067392554 33.241218642058676 30.842887839006004 0 0 0
1911 3 3 0 47.397919802394526 32.505322296027025 32.879148640728026 0 0 0
643 1 5 0 41.676007579090324 32.99115687007039 35.0032974453743 0 0 0
3031 15 12 0 42.84604783100541 38.45557590693939 32.64245979355503 27 -21 0
924 2 1 0 44.36269602930568 34.86217488754949 31.399438968192833 0 0 1
921 2 8 0 43.97585553411308 35.98541739916779 32.76010544683216 0 0 1
922 2 3 0 44.33274432539362 35.98196160209094 31.682537326500107 0 0 1
918 2 5 0 45.650776086663825 37.721403670161685 31.87621744347046 0 0 1
916 2 4 0 45.693779726074624 36.643931548246925 31.674145119077075 0 0 1
919 2 9 0 46.36844743451506 35.965631218061695 32.69093939591191 0 0 1
920 2 7 0 46.65364321669007 36.55905896356925 33.32633265559645 0 0 1
915 2 3 0 46.574656959814874 36.61032703290673 30.380684635321874 0 0 1
914 2 8 0 47.643971475236356 36.69924276197872 30.709980081140966 0 0 1
923 2 4 0 43.32460409967355 36.63930786252542 30.72418318830238 0 0 1
925 2 5 0 44.06144593250425 37.336455965875665 30.452002811938325 0 0 1
1913 3 1 0 46.315866787921735 32.301948561945636 33.07637299344859 0 0 0
276 1 3 0 48.7645126208178 38.66141378004497 35.836406563091245 0 0 0
278 1 1 0 48.781944155823865 37.72809048806363 35.18373075582509 0 0 0
280 1 9 0 46.900383445814825 40.29744742254935 36.05598754853034 0 0 0
281 1 7 0 46.110065721741805 40.41540464376836 36.590599366232446 0 0 0
917 2 1 0 46.615957128376444 35.661124135169224 60.04907497795356 0 0 0
931 2 1 0 43.47529983873933 34.80197426184045 59.78956679277982 0 0 0
911 2 5 0 46.48903255016084 38.72559528326885 59.922752816525986 0 0 0
929 2 3 0 42.928280122680086 35.744881553390485 59.66032436923116 0 0 0
1910 3 8 0 47.545406367359305 33.60360402707338 32.75279192140085 0 0 0
279 1 5 0 46.67212918217056 38.32843364623358 35.50170352877601 0 0 0
277 1 4 0 47.30030708898738 38.88892045135037 36.21245470539589 0 0 0
910 2 1 0 48.76599342152255 37.80974276955928 58.79604302817076 0 0 0
1906 3 1 0 47.97142461883723 34.188385600057046 34.94364912570749 0 0 0
268 1 8 0 49.402206078087815 39.315565849621095 33.1633335140571 0 0 0
1904 3 3 0 48.4257730517373 33.12441226985369 35.13415495113338 0 0 0
1903 3 8 0 49.50289244082505 33.38561889442141 34.92030150319048 0 0 0
197 1 7 0 50.56698464438593 35.24365209963362 33.734962329032186 0 0 0
196 1 9 0 50.82270102482747 35.18889167311766 32.81888706141655 0 0 0
188 1 5 0 51.212683658203815 37.160899447625 35.996022846235434 0 0 0
193 1 4 0 52.142969355557604 35.589627860898396 33.033702640261886 0 0 0
195 1 5 0 52.671798791689504 34.80336717331782 33.56346867517896 0 0 0
186 1 4 0 51.85620149296932 36.40570326241213 35.49952969485161 0 0 0
192 1 3 0 52.165323364847396 36.746831846770874 34.02222384290072 0 0 0
199 1 3 0 52.94544148088484 35.85177184614193 31.72690259870793 0 0 0
203 1 9 0 52.432532899799085 33.79443542337767 30.731732705420452 0 0 0
190 1 7 0 51.673278392242736 34.53607734986817 35.91372639276489 0 0 0
189 1 9 0 51.05760255778037 35.20057322375842 35.598746995038255 0 0 0
201 1 1 0 52.96485816954467 36.91440633079059 31.39568162616911 0 0 0
194 1 1 0 51.337696668922334 37.43989899348815 33.764554558881834 0 0 0
200 1 4 0 52.44770140405558 35.185929584850655 30.432110205214737 0 0 0
259 1 9 0 50.8228796752971 39.19366904882702 31.29011622651531 0 0 0
260 1 7 0 49.964651713120205 38.91878543747178 31.719998074484437 0 0 0
258 1 5 0 51.53799694963118 40.130413086237695 33.00668309376726 0 0 0
1763 3 8 0 59.06856052819692 33.2130360787847 35.581823122518166 0 0 0
191 1 8 0 53.17752920214383 37.16344666096387 33.888208113533196 0 0 0
198 1 8 0 53.945939408340045 35.52965815922669 31.785438347246703 0 0 0
1756 3 8 0 59.034527215512824 34.3146247327261 33.2872481162337 0 0 0
226 1 8 0 59.33044794969124 35.69081460665882 31.54879617245474 0 0 0
1754 3 9 0 57.03489212321925 34.50397116957275 34.18478875333778 0 0 0
229 1 1 0 57.62522630365946 35.66072668136426 31.63521139337257 0 0 0
227 1 3 0 58.42394684974944 36.11952957932434 31.03842442122592 0 0 0
2988 12 12 0 58.48739262297681 37.07995734616533 33.62606495734431 0 0 0
1755 3 7 0 56.93902739395083 35.05843829494617 33.43216284712935 0 0 0
222 1 1 0 57.5935180170912 33.758531048971335 30.725502883992533 0 0 0
228 1 4 0 58.27659113152429 37.690383968511696 31.0950273322385 0 0 0
1190 2 1 0 57.243688503907805 36.33832833282641 35.49568525691977 0 0 0
2982 12 16 0 58.20627149851537 38.18232235172538 33.40153552791325 0 0 0
230 1 5 0 59.30030409097475 38.08210106820616 30.994251862493577 0 0 0
234 1 3 0 57.22845506977852 38.06674458208845 29.96246409156625 0 0 0
231 1 14 0 57.55252508916746 38.2230751888343 32.16998708545141 0 0 0
1192 2 14 0 57.18413611363375 38.58614732437779 34.33422616513861 0 0 0
2979 12 11 0 59.37397967830607 39.12909236293696 33.38623124015569 0 0 0
233 1 8 0 56.21972391331757 38.16566675115771 30.45245480987179 0 0 0
1187 2 8 0 55.84296373624203 37.45864942432032 36.08955858667337 0 0 0
1189 2 4 0 57.66756915712093 38.29592122516321 35.68839086989499 0 0 0
1191 2 5 0 58.78175125843554 37.988126885419575 35.740598338502586 0 0 0
1968 3 4 0 33.97031518709508 37.98277543960466 31.310994890999368 0 0 0
1971 3 9 0 32.64743844196442 38.34520384206258 31.683049841860377 0 0 0
1974 3 3 0 34.62623164768506 39.147205968633116 30.705356162516946 0 0 0
1977 3 5 0 34.354503475374045 40.21675446641055 32.619975450251054 0 0 0
1975 3 4 0 34.52170668009347 40.35822882569093 31.519382023072694 0 0 0
1981 3 3 0 33.452441854177685 41.335247092361215 31.01424837946669 0 0 0
1984 3 5 0 32.417453051296896 41.4496569279145 32.791919580909116 0 0 0
1982 3 4 0 32.6479675160125 42.1528988358513 31.909852490564617 0 0 0
1983 3 1 0 33.75707962807681 41.965560253744286 30.155735938236766 0 0 0
1985 3 14 0 31.46167196102348 42.46103482881985 31.25875527940283 0 0 0
2974 12 16 0 30.31036161890273 42.482597797492566 32.07741581710321 1 0 0
2986 12 12 0 30.780319700779067 42.676394576521375 33.062056108792056 1 0 0
1991 3 5 0 33.238188744713746 42.803353566001434 34.462557961538764 0 0 0
2977 12 12 0 30.145029608217204 40.42551007268405 31.53920025718009 1 0 0
2975 12 11 0 59.728048650963004 41.25033310576687 31.883697529351565 0 0 0
1980 3 8 0 32.71949295179155 40.658884244892675 30.58007324247591 0 0 0
1973 3 8 0 34.480535008655096 39.36547651632924 59.88101590715867 0 0 -1
2978 12 12 0 58.91710525999229 41.425586282304515 31.136201958773576 0 0 0
1988 3 3 0 33.31996682975354 43.47884101412362 32.361151315854194 0 0 0
455 1 9 0 34.42573554725921 40.68678423420472 35.567510156296244 0 0 0
1978 3 9 0 35.780853277804454 41.029019912627284 31.338673540014575 0 0 0
1979 3 7 0 35.66801535523594 41.96778761592028 30.99443499871011 0 0 0
1994 3 8 0 35.24390168710392 43.654325811463934 34.148608191288375 0 0 0
1989 3 4 0 33.28577440427318 43.728639540101724 33.88042667308047 0 0 0
1990 3 1 0 34.395708650281534 43.30818153111244 32.063503172368584 0 0 0
1987 3 8 0 33.0033946731452 44.31812524219949 31.755509985404633 0 0 0
1992 3 9 0 32.043680399590286 44.31336714604926 34.17784778975151 0 0 0
1997 3 1 0 34.38645748407605 44.30449193202088 35.498107096175644 0 0 0
1995 3 3 0 34.45636933683052 44.361040300073185 34.4085074711272 0 0 0
456 1 7 0 33.643692497862276 40.5150904593354 36.09451466265045 0 0 0
2122 4 8 0 30.348197142815096 45.82305335724162 37.175224438485834 0 0 0
3020 15 11 0 42.28215238741136 39.47862844880821 30.692947378023785 27 -21 0
1976 3 1 0 35.689355789447156 38.83109955556705 30.539287651984957 0 0 0
620 1 4 0 40.87303227917115 39.0936930180368 33.66015065381425 0 0 0
617 1 7 0 42.415611940399764 41.96197657673501 33.00072183634982 0 0 0
622 1 5 0 41.90748352982592 39.25937848618476 34.072260498623685 0 0 0
621 1 1 0 39.8766223213526 40.488355193064976 35.041118302554935 0 0 0
618 1 8 0 38.996920782591 40.116491113450856 33.54989451712887 0 0 0
619 1 3 0 40.04073200363339 40.327925710423756 33.94936197160387 0 0 0
613 1 4 0 40.42628295646955 41.6247147679503 33.37093068537671 0 0 0
615 1 5 0 40.28746268306939 41.44899157095564 32.31544388268892 0 0 0
611 1 8 0 39.15216697132506 43.3183358178654 33.21731890000996 0 0 0
612 1 3 0 39.689939214592414 42.75396903671559 33.98598676793793 0 0 0
606 1 4 0 40.55420868900554 43.709151738135006 34.84684728806826 0 0 0
608 1 5 0 41.23536197155832 43.21660748028357 35.49267106193064 0 0 0
2288 4 9 0 41.29803291489224 44.139835827490884 31.374977547247397 0 0 0
614 1 1 0 38.961797266679184 42.30170261573486 34.56646780570265 0 0 0
609 1 9 0 41.24907491522598 44.55184669630612 33.9453446837483 0 0 0
616 1 9 0 41.81262341626655 41.686245719086365 33.76245666017121 0 0 0
3022 15 12 0 41.82489858527103 40.46454778918556 30.897581700921947 27 -21 0
610 1 7 0 42.17489756349744 44.404750640131496 34.05174371210607 0 0 0
607 1 1 0 39.379273539316436 44.05997702991722 36.6297138517833 0 0 0
99 1 7 0 37.66605030688511 44.19233891786113 30.319416380738268 0 0 0
2289 4 7 0 40.53746657577506 43.48203034293645 31.386535337977936 0 0 0
3025 15 12 0 44.5768586121807 39.412369183097454 31.04372541882649 27 -21 0
271 1 1 0 47.92317271656531 40.23969056887709 33.744692928638855 0 0 0
2301 4 5 0 45.838609397924344 42.11554223675946 34.30255195949567 0 0 0
2292 4 4 0 44.19302626565818 44.40197697879934 32.04168770173034 0 0 0
2298 4 3 0 44.76919121492328 43.034188065675714 32.60138292965912 0 0 0
2305 4 3 0 44.8156264901656 43.83478752149921 35.124085989536034 0 0 0
2300 4 1 0 43.99500729587345 42.29651920892644 32.70231887188746 0 0 0
2304 4 8 0 43.825426034377045 44.31594536498521 34.7657593888033 0 0 0
2294 4 5 0 43.31691580472845 44.76312907105811 32.578981780322444 0 0 0
2299 4 4 0 45.54293773238158 43.154132529903706 33.97104221586335 0 0 0
2302 4 14 0 46.7944251851999 43.771717236345694 33.54063083634329 0 0 0
2297 4 8 0 45.55086996794477 42.73837079424115 31.90696189506096 0 0 0
2307 4 1 0 45.47684510967608 44.66073822042881 35.40367237112143 0 0 0
2809 1 16 0 48.049820260514736 43.23068754106153 33.87467395740866 0 0 0
2821 1 12 0 47.9317684906387 42.83658580826756 34.8659606197017 0 0 0
2309 4 9 0 43.90349292954495 41.74965015610225 36.17505328818308 0 0 0
266 1 14 0 48.3381235996587 42.1596664789958 32.95982736972529 0 0 0
272 1 5 0 49.25247906011428 40.733649673965395 35.87774166180745 0 0 0
2310 4 7 0 44.18655151098278 41.30016940799721 35.37162156006215 0 0 0
2306 4 4 0 44.57740861186435 42.997123621213504 36.37868939694575 0 0 0
269 1 3 0 49.02443130117335 40.1218537429193 33.844467586810616 0 0 0
270 1 4 0 49.43124380859392 39.88509403036706 35.279518608768136 0 0 0
273 1 9 0 50.88951362748885 39.76866598727559 35.34289406985509 0 0 0
274 1 7 0 51.213642525568076 40.590579577860716 34.91736576605197 0 0 0
2308 4 5 0 45.59250992048892 42.898568717583906 36.9068691947474 0 0 0
2311 4 8 0 42.62873432278809 43.82164743557529 37.107993968081395 0 0 0
3026 15 12 0 43.90116499971295 40.890130364401564 30.643948391480688 27 -21 0
3021 15 11 0 43.7987978847293 39.85717079971744 30.336964793035072 27 -21 0
2812 1 12 0 48.455023542407204 45.35055265272914 33.57909955267034 0 0 0
261 1 8 0 49.479877419810215 41.23354649721871 31.09449106695019 0 0 0
263 1 4 0 49.45051625555023 41.45446521477323 33.25015022450203 0 0 0
256 1 4 0 51.3535587700801 40.35298241101947 31.890548693654857 0 0 0
262 1 3 0 50.22254279564514 41.36718605739761 31.878874457789347 0 0 0
265 1 5 0 50.19694667297869 41.86778756307607 33.90663986947058 0 0 0
255 1 3 0 52.70318229931567 40.89361073763867 31.312913517504473 0 0 0
257 1 1 0 53.53928554833898 40.312893404966864 31.60627926680434 0 0 0
264 1 1 0 50.61393268980037 42.31207273006751 31.719033001859696 0 0 0
254 1 8 0 52.73885807459837 41.96627902943523 31.713127303180844 0 0 0
2810 1 11 0 49.02369722558215 44.34278941605683 33.6689853566441 0 0 0
2813 1 12 0 49.60094984768007 44.22634691330828 32.81711811546417 0 0 0
1213 2 14 0 52.7334568620808 43.75076888936442 36.20718877627966 0 0 0
2814 1 11 0 51.33349801358858 44.70178371180299 34.47664548304901 0 0 0
2819 1 12 0 51.78468749143791 43.76896553090645 33.91139767794391 0 0 0
2818 1 12 0 51.347170434625504 45.530767912206656 33.70657646614619 0 0 0
250 1 1 0 54.72551550818392 41.96607304674188 30.212543260116693 0 0 0
248 1 3 0 54.210032553789745 41.36140649820026 59.569178401050365 0 0 -1
249 1 4 0 52.79648173182625 40.82434416982468 59.98237758152219 0 0 -1
1206 2 9 0 56.079606398841335 42.67722916303437 34.924516752195345 0 0 0
2811 1 11 0 49.94651239075714 44.409555261746476 34.816932814694226 0 0 0
2815 1 12 0 49.86652955155232 43.48283362154097 35.40355818671353 0 0 0
2817 1 16 0 52.221981508002685 44.987753497049546 35.7155384813138 0 0 0
2823 1 12 0 53.056232780891634 45.74857030410511 35.63425802513438 0 0 0
2786 4 7 0 48.56903812091622 44.90581966711248 30.364031943755954 0 0 1
1402 2 14 0 59.605307584964464 43.542991911782806 31.69143403774591 0 0 1
1208 2 8 0 55.25714836314208 44.599194292548106 36.06179763099998 0 0 0
2981 12 12 0 59.31064548297005 41.157168754390476 33.922122183074556 0 0 0
2976 12 11 0 59.00267069933554 40.60380749151792 33.09619214086916 0 0 0
2980 12 12 0 57.948391223008144 40.72520997144809 32.9470913002769 0 0 0
243 1 1 0 56.28850329592291 40.41767712306856 30.628804261096636 0 0 0
1403 2 6 0 58.760362825201895 43.18197478834975 33.48514742268933 0 0 1
1399 2 4 0 59.02744264277054 44.01709075364697 32.81948326301118 0 0 1
1400 2 1 0 57.09732303543966 43.74145272746131 32.35346605345789 0 0 1
1401 2 5 0 59.73733390637279 44.68222271485861 33.28354007026816 0 0 1
1398 2 3 0 57.78885041747631 44.653539188973596 32.27739245401289 0 0 1
1397 2 8 0 58.01269246473096 44.97766690445161 31.233514140125372 0 0 1
1207 2 7 0 56.43688205658347 43.5487446506086 34.95370591752374 0 0 0
1201 2 8 0 57.085082315259825 41.781036815870465 37.12642414503205 0 0 0
244 1 5 0 54.83773706725617 39.370806792741774 59.06149421353846 0 0 -1
2220 4 8 0 33.05751756683904 50.14039579118082 31.2665732251214 0 0 0
1996 3 4 0 34.56941621559021 45.818143591769356 33.98009741959464 0 0 0
70 1 9 0 32.31434016014808 47.88286015002795 31.693380815854386 0 0 0
71 1 7 0 33.087745539420446 47.44883213771215 31.400860155250754 0 0 0
1999 3 9 0 35.234894661109266 45.961874891414354 32.73023506057853 0 0 0
2213 4 8 0 31.710102098890523 50.00462960338504 33.35280749440903 0 0 0
1998 3 5 0 33.53055221533835 46.28998585628882 33.958264972649026 0 0 0
72 1 8 0 31.036469110247463 45.67468700794694 31.023890102926078 0 0 0
62 1 5 0 30.62633436081325 50.22506242717558 31.18377784467844 0 0 0
2221 4 3 0 33.25435930317857 51.121837722861954 31.255828873169744 0 0 0
2006 3 9 0 34.94436852302067 48.366224499485895 36.22243661121187 0 0 0
2007 3 7 0 34.51829489881338 47.60700831352357 36.53187021694758 0 0 0
2005 3 5 0 34.53958131465575 48.30632966442143 34.279546946764654 0 0 0
2002 3 3 0 35.51855828103556 46.51942042275906 34.93239694484196 0 0 0
2212 4 7 0 30.202880605493874 50.534439939291964 35.78130037463414 0 0 0
1993 3 7 0 31.319614730136042 43.65712801410592 34.188683464685475 0 0 0
2000 3 7 0 34.68584024490649 46.44359256008735 32.057731292877556 0 0 0
2003 3 4 0 35.32197074911831 48.0405771114989 34.94307651270485 0 0 0
2014 3 7 0 36.49274782606024 48.898655830211 32.21257895666769 0 0 0
66 1 3 0 30.038384577308662 48.10549669717738 30.969148164447414 0 0 0
60 1 4 0 59.98852207471598 49.632969127676624 30.543556491932875 -1 0 0
2128 4 7 0 59.09467298523026 44.562992437649214 35.559047408840485 -1 0 0
2012 3 5 0 35.529508102576315 50.480373938584194 34.27101744182201 0 0 0
2233 4 7 0 36.90501425831722 51.018508201850366 59.75675475367996 0 0 -1
605 1 3 0 39.60408296920972 44.611199915559496 35.67619808630941 0 0 0
604 1 8 0 38.50419034169947 44.697004047891696 35.27348080597101 0 0 0
2001 3 8 0 36.48948890535368 46.19408983907968 34.57894764467182 0 0 0
2009 3 3 0 36.64271202358958 48.79824037353781 34.68555523326701 0 0 0
2011 3 1 0 37.06311543792468 48.91513160766401 35.67213805372323 0 0 0
2008 3 8 0 37.316416552384176 48.17137689789452 34.048182493691286 0 0 0
109 1 4 0 41.25271526317111 48.93234527813484 30.882560654495975 0 0 0
111 1 5 0 41.77799497039152 48.05158109372401 30.852362212795786 0 0 0
120 1 7 0 42.15625907380519 48.042416514912546 34.519761897309714 0 0 0
104 1 5 0 40.0906762504776 46.57544688665669 30.63484629150473 0 0 0
102 1 4 0 39.2495819497629 47.24137810308518 30.918517983302827 0 0 0
601 1 5 0 39.64858177565744 46.63374003811993 35.051338689940735 0 0 0
602 1 9 0 41.32791267419718 46.142371048597056 36.080017461391094 0 0 0
599 1 4 0 40.00399992968303 45.99399995214442 35.922550410645435 0 0 0