LAMMPS data file via write_data, version 23 Jun 2022, timestep = 1200000

2988 atoms
18 atom types
3044 bonds
16 bond types
5800 angles
31 angle types

29.939070172880456 60.16792982711372 xlo xhi
27.024570172880452 57.25342982711371 ylo yhi
29.90807217288046 60.13693182711372 zlo zhi

Masses

1 1.00794
2 1.00794
3 12.0107
4 12.0107
5 1.00794
6 1.00794
7 1.00794
8 1.00794
9 15.9994
10 12.0107
11 12.0107
12 1.00794
13 15.9994
14 15.9994
15 12.0107
16 12.0107
17 1.00794
18 15.9994

Pair Coeffs # lj/cut

1 0.038 2.44997
2 0.038 2.44997
3 0.039 3.87541
4 0.039 3.87541
5 0.038 2.44997
6 0.038 2.44997
7 0 0
8 0.038 2.44997
9 0.228 2.85978
10 0.148 3.61705
11 0.039 3.87541
12 0.038 2.44997
13 0.228 2.85978
14 0.228 2.85978
15 0.148 3.61705
16 0.148 3.61705
17 0 0
18 0.228 2.85978

Bond Coeffs # harmonic

1 340.618 1.105
2 340.618 1.105
3 322.716 1.526
4 340.618 1.105
5 340.618 1.105
6 340.618 1.105
7 384 1.42
8 540.634 0.96
9 283.092 1.52
10 340.618 1.105
11 615.322 1.23
12 322.716 1.526
13 340.618 1.105
14 384 1.42
15 540.634 0.96
16 384 1.42

Angle Coeffs # harmonic

1 39.5 106.4
2 44.4 110
3 39.5 106.4
4 44.4 110
5 39.5 106.4
6 46.6 110.5
7 44.4 110
8 44.4 110
9 70 109.5
10 46.6 110.5
11 44.4 110
12 58.5 106
13 39.5 106.4
14 57 109.5
15 57 109.5
16 46.6 110.5
17 45 109.5
18 50 120
19 68 120
20 46.6 110.5
21 44.4 110
22 55 120
23 39.5 106.4
24 70 109.5
25 57 109.5
26 70 109.5
27 57 109.5
28 80 109.5
29 70 106
30 80 109.5
31 58.5 106

Atoms # full

992 2 3 0 33.49068727569494 28.64800941740531 34.85469622337623 0 0 1
994 2 1 0 34.47953591569205 28.64596225954759 34.4927378678328 0 0 1
986 2 4 0 32.69599100556695 29.837598699911776 34.37924612890174 0 0 1
988 2 5 0 32.53924440713756 29.87248299505746 33.343516536468336 0 0 1
985 2 3 0 33.69045285743319 30.98028113291551 34.69618245888245 0 0 1
989 2 14 0 31.41340750742769 29.9166738647227 34.95993035317902 0 0 1
979 2 4 0 33.94283595967856 31.811304313682506 33.44661453350847 0 0 1
981 2 5 0 33.18479098103032 31.852606580126874 32.67084149009606 0 0 1
987 2 1 0 34.72170937849984 30.618604661205445 35.2018840279925 0 0 1
978 2 3 0 35.208202030186825 31.372623397841412 32.7508641906065 0 0 1
980 2 1 0 35.528934421054565 30.377678105790736 33.15538716862176 0 0 1
3018 14 12 0 30.700715493351428 31.293425689254796 33.43599392461219 -8 -2 2
984 2 8 0 33.1758048930752 31.79799668511264 35.38317562779451 0 0 1
972 2 4 0 35.03403310782959 31.368523944717044 31.199556423067584 0 0 1
974 2 5 0 34.00877674254766 31.04603435003609 30.96747628786105 0 0 1
3012 14 16 0 30.33336812519647 30.395072671106774 34.013596898429306 -8 -2 2
998 2 8 0 32.445891221112134 27.560020431251466 32.434229431860814 0 0 1
996 2 14 0 31.500838538338854 27.36766517663501 35.314056409311036 0 0 1
993 2 4 0 32.79519851294203 27.308038319436033 34.67187427665111 0 0 1
1019 2 8 0 31.365178405224384 28.791806471509837 30.553036304512972 0 0 1
1760 3 5 0 30.485909380661546 32.735413416328086 34.82273403207068 1 0 0
991 2 8 0 33.535824135029756 28.89676350815178 35.891539052496114 0 0 1
973 2 1 0 35.82790174573259 29.41338309223203 30.861609913437025 0 0 1
1031 2 9 0 31.478501518312516 32.80301438608971 30.474555219981394 0 0 1
999 2 3 0 32.812232356325346 57.04691578159762 33.130252244323984 0 -1 1
1026 2 8 0 30.358726213007014 30.54736516861717 30.724031611900465 0 0 1
975 2 9 0 35.12478651647959 32.65088168395369 30.68140896473774 0 0 1
976 2 7 0 34.735921177609924 33.29120110299822 31.355486391377422 0 0 1
982 2 9 0 34.162423235191255 33.12512541241277 33.95221457268663 0 0 1
1009 2 5 0 33.72501092804543 27.55414458829192 30.207942342170774 0 0 1
1027 2 3 0 30.433022299321582 30.789980553186307 59.831041053229626 0 0 0
1022 2 1 0 60.092188492949376 27.986726784625784 30.248251373084482 -1 0 1
977 2 8 0 35.89300052278345 32.1206638417202 33.12799678839003 0 0 1
971 2 3 0 35.939831457037684 30.41789227645621 30.413717619040685 0 0 1
670 1 1 0 39.99089806953729 28.346941789099454 33.780339642175306 0 0 0
668 1 3 0 38.99856745638098 27.947333229155227 34.01163672463258 0 0 0
1935 3 5 0 41.55301764677805 31.720345230570405 32.94129991512208 0 0 0
669 1 4 0 38.40683655315776 27.648707208091942 32.673998878151764 0 0 0
970 2 8 0 36.98196705241703 30.66528618356537 30.551258001819747 0 0 1
672 1 9 0 38.648954862538716 28.808596061499212 31.85159876764437 0 0 0
673 1 7 0 38.562582301490025 29.66614178288632 32.34233588665719 0 0 0
671 1 5 0 37.3007746919949 27.554966298083002 32.772741128609205 0 0 0
662 1 4 0 38.126909198400455 28.918976285612153 34.78804017287676 0 0 0
664 1 5 0 37.42316574208627 29.361257556785013 34.163822957543644 0 0 0
667 1 8 0 39.13089184630003 27.08595275069247 34.542585930132276 0 0 0
665 1 9 0 37.600839357815914 28.066399198066513 35.68394485624146 0 0 0
666 1 7 0 37.90158529254662 28.400705594456 36.516518955507884 0 0 0
1931 3 8 0 41.04455129413051 30.957283751980064 30.699583892539426 0 0 0
1944 3 7 0 38.001222756500496 33.12910417281006 30.959162836144184 0 0 0
1933 3 4 0 41.84974526725913 32.41676902147191 32.12000511629198 0 0 0
1936 3 9 0 43.12422421986338 32.823490351635236 32.53555155397877 0 0 0
661 1 3 0 39.0712917942122 30.016818403208724 35.22855634231924 0 0 0
659 1 7 0 37.75954284243243 32.26773833922756 35.186614074114374 0 0 0
658 1 9 0 37.27873714168552 31.701133683234467 35.80104360456725 0 0 0
1937 3 7 0 43.75054739936138 32.138800357389336 32.650496694922545 0 0 0
1943 3 9 0 38.87717574116942 32.79345587266136 30.91445437381718 0 0 0
656 1 1 0 40.393720176653474 31.724439404858657 36.1394876174422 0 0 0
678 1 5 0 38.33336092805456 27.144404021739305 30.100664494822205 0 0 0
1932 3 3 0 41.98269433645048 31.655742264150526 30.822435337813097 0 0 0
983 2 7 0 34.88948073761442 33.5067064807202 33.47351062514624 0 0 1
655 1 4 0 38.38158251110658 30.849130106387285 36.263268742577715 0 0 0
1930 3 7 0 42.13342864447892 29.439461624210132 59.943317368628115 0 0 -1
1692 3 7 0 43.862291201499296 30.917143438081464 34.967430193462 0 0 0
1697 3 5 0 42.72479022924239 28.728358020793415 33.742123453029826 0 0 0
1695 3 4 0 43.46208798201894 28.017848671333972 34.27259514247823 0 0 0
1694 3 3 0 43.29848221142379 28.089820336661152 35.72659799272523 0 0 0
1698 3 14 0 44.67319687998423 28.601334085733725 33.883582536334174 0 0 0
1711 3 5 0 44.882315747736754 28.442709600042306 31.466888323835953 0 0 0
2914 8 16 0 45.81072683549801 27.812002103556416 33.95998674400135 3 5 8
1914 3 5 0 47.82724658194792 31.675990369568385 31.78066686400917 0 0 0
1912 3 4 0 47.398421772998034 32.698638676863666 31.818780407977147 0 0 0
1907 3 5 0 48.19385880733702 31.502512087665014 34.309724361336094 0 0 0
1918 3 3 0 46.07581020708158 32.71501017035099 30.933963410423175 0 0 0
1928 3 5 0 43.674612266235215 30.63070237514262 31.761570879937416 0 0 0
1691 3 9 0 43.06998833500455 30.431919625741966 35.11589733210122 0 0 0
2917 8 12 0 46.46212171742506 29.659666520872694 34.69747288808417 3 5 8
2915 8 11 0 46.911750831426154 28.657142849425686 34.58870778856833 3 5 8
1921 3 5 0 45.59613056468922 30.716113819466283 31.23005708823153 0 0 0
1926 3 4 0 43.230541967557826 30.821741378976178 30.770468263658543 0 0 0
2916 8 11 0 47.45061557812896 28.114085897855755 35.8857329758324 3 5 8
1929 3 9 0 43.04098743130301 29.610847584954797 30.044415670028048 0 0 0
1688 3 4 0 43.54683104545376 29.54248555076693 36.11426380749158 0 0 0
1712 3 14 0 46.320426301691484 27.520296510817207 32.64731968525864 0 0 0
1696 3 1 0 43.98122687841445 27.366249234017364 36.07400632120446 0 0 0
1690 3 5 0 44.64101091928981 29.560052782979287 36.19569773551299 0 0 0
1917 3 8 0 46.36281557629124 33.32977311974463 30.107472953582473 0 0 0
1915 3 9 0 48.31770468779301 33.54612823469495 31.102712462089453 0 0 0
1916 3 7 0 48.98281886169225 33.77099554596045 31.764129078194106 0 0 0
2920 8 12 0 48.35441749805423 27.606706530256453 35.709445850765036 3 5 8
1905 3 4 0 48.09702337624296 32.59042092258321 34.33329344527744 0 0 0
1911 3 3 0 47.07513155033291 33.157883499842214 33.2702504333697 0 0 0
1920 3 1 0 45.264373635506495 33.24001223859522 31.431520982884162 0 0 0
1693 3 8 0 42.34382255930506 27.75289336585886 36.022266154344244 0 0 0
2921 8 12 0 46.741932095527766 27.400138915576754 36.327890541853286 3 5 8
2918 8 12 0 47.73770617669776 28.707066523209964 33.83016296811026 3 5 8
1732 3 5 0 52.39126077345201 30.389899573600896 30.81109344945807 0 0 0
1727 3 7 0 48.5183560000453 30.214430896562057 31.44864692761423 0 0 0
1738 3 1 0 53.39297806496181 28.60635113810995 32.30806936369664 0 0 0
1730 3 4 0 52.55763848472072 29.315090191004874 30.569836314477016 0 0 0
1736 3 3 0 53.7078255067443 28.755514287836657 31.281636197746792 0 0 0
1731 3 1 0 51.01192808647169 28.71531214154355 32.13194681230677 0 0 0
1724 3 1 0 48.82241856186126 27.62529086965884 31.736144899792006 0 0 0
1735 3 8 0 53.95691462835441 27.712613294477983 30.99044907879059 0 0 0
1909 3 7 0 49.71818449547022 32.94286975176729 33.2471659067699 0 0 0
1908 3 9 0 49.377219198768465 33.18162219601291 34.138103704077515 0 0 0
1748 3 7 0 54.5802006719529 31.957133942066122 33.41502776903502 0 0 0
2919 8 11 0 47.814638578459 29.11294102526577 36.91553754510226 3 5 8
2923 8 12 0 46.95199705561186 29.766681443829277 37.20950855826115 3 5 8
4 1 1 0 50.801933870060665 30.65552421733813 36.68985852641362 -1 1 0
5 1 2 0 52.31928421179536 29.717442585031726 36.35409280695197 -1 1 0
2924 8 12 0 48.486593252535116 29.868790598323024 36.36544070461619 3 5 8
1729 3 3 0 51.18829081704458 28.695417616938016 31.063467871484864 0 0 0
1728 3 8 0 51.32955093315992 27.561243191441335 30.846792097681192 0 0 0
3014 14 12 0 30.527831047642398 28.908501229693076 32.594047241938426 -8 -2 2
1745 3 1 0 55.68587010182662 28.378960435014175 32.805599205010665 0 0 0
1739 3 5 0 54.592989238492564 30.588387365767897 31.265882049713838 0 0 0
1747 3 9 0 54.453132298500904 31.039630168962475 33.324831544934455 0 0 0
1758 3 4 0 59.69959670122658 32.31259563375446 34.87888163255741 0 0 0
3009 14 11 0 59.979551361117316 29.26941684535486 33.25341455610842 -9 -2 2
1761 3 14 0 59.54124109927038 30.920296855707694 34.79093928678222 0 0 0
1737 3 4 0 54.95719759761436 29.569533556207055 31.145859438703454 0 0 0
1742 3 8 0 57.019109100155305 29.16647146506388 31.98838808130113 0 0 0
3013 14 12 0 59.25899079123356 29.54572750348853 32.46551946151541 -9 -2 2
3010 14 12 0 59.47124579605777 28.51288167620153 35.09526680531903 -9 -2 2
3006 14 11 0 59.2805692310659 28.190690843645047 34.0160827873286 -9 -2 2
3011 14 12 0 58.148651797509935 28.206073624200585 33.81483347974825 -9 -2 2
1743 3 3 0 55.966609695961964 29.275701487357594 32.29869884857145 0 0 0
1744 3 4 0 55.79799973156463 30.442375817798975 33.2393354291433 0 0 0
1746 3 5 0 56.15401579276868 30.119434537476803 34.21452847636111 0 0 0
1752 3 1 0 57.73731680095224 30.923073377482694 32.68010546562559 0 0 0
1750 3 3 0 56.80584512494163 31.532162916924737 32.80634188359296 0 0 0
1753 3 5 0 56.78719417069655 32.31053305351773 34.78807983596575 0 0 0
1749 3 8 0 56.636155151549985 32.0833072279555 31.837154741342104 0 0 0
1759 3 1 0 59.172011221868594 32.576551930113 32.900225610347384 0 0 0
1740 3 9 0 55.55545550200128 29.485824853053003 60.06522272402796 0 0 -1
1751 3 4 0 57.23574322061609 32.57734704290096 33.85274141482053 0 0 0
1029 2 1 0 59.70319006530079 31.188768173085336 59.484426414294646 -1 0 0
1024 2 9 0 59.66195309662163 29.381106837576418 58.07883120592276 -1 0 0
1032 2 7 0 31.2082755148241 32.333977972240014 31.27534910814562 0 0 1
1956 3 5 0 34.82287432892535 34.808648671389534 31.721098699487086 0 0 0
1962 3 1 0 33.60612994604454 36.07633225414662 33.06057003412161 0 0 0
1960 3 3 0 34.109931925006016 36.71659405393471 32.32248472264041 0 0 0
1961 3 4 0 33.089960678781736 37.46835345922622 31.538344725371132 0 0 0
1959 3 8 0 34.544734148200554 37.506735704378656 32.92948453674853 0 0 0
1963 3 5 0 32.28368145361104 37.725769262834795 32.340141882082754 0 0 0
1964 3 14 0 32.38419011399171 36.53238538474459 30.715415546261536 0 0 0
1954 3 4 0 35.194427950955856 35.865408566710805 31.552896729750774 0 0 0
2959 11 16 0 30.978832141747386 36.939399843890804 30.499755653298664 1 0 1
1967 3 3 0 33.70514691123539 38.72335924326657 30.77826464407858 0 0 0
1969 3 1 0 34.81146869291614 38.94598829782089 30.74671014579165 0 0 0
2971 11 12 0 30.76515654298428 37.97124094120216 30.887957033380268 1 0 1
1957 3 9 0 35.28752658061915 36.202103809167944 30.172846798649783 0 0 0
1966 3 8 0 33.37200800005902 38.70045513457109 59.98281861075476 0 0 -1
1958 3 7 0 36.10221535733322 36.634101035356316 29.997533454905042 0 0 0
1970 3 5 0 33.77686933968611 40.17582020306516 32.51920976747458 0 0 0
1968 3 4 0 33.33441411514944 40.0448507911235 31.470045363081883 0 0 0
442 1 7 0 33.98441405752175 37.82608605945731 35.08806096396036 0 0 0
443 1 8 0 35.773212832653456 37.98787864488581 34.86545863940545 0 0 0
650 1 5 0 38.94966539767104 33.610628240940194 35.69691612984253 0 0 0
645 1 7 0 43.047736781289245 33.5256903829256 36.45494239141365 0 0 0
1938 3 8 0 41.236924405110884 34.04095420394618 30.87530338481977 0 0 0
1939 3 3 0 40.998660098891975 33.604847583564684 31.855216041747063 0 0 0
1953 3 3 0 36.6553008592967 36.12660103681984 32.05142315146451 0 0 0
1955 3 1 0 36.65306053966177 36.842602532253366 32.84601569396012 0 0 0
1952 3 8 0 37.17470798494855 36.68237287243248 31.28502296278175 0 0 0
1951 3 7 0 36.30264426083429 35.12366736985773 34.15552310485524 0 0 0
1942 3 5 0 39.157305885338886 32.96182453360647 32.94099330006387 0 0 0
1940 3 4 0 39.455297209740095 33.49909883882418 31.9816113525375 0 0 0
1949 3 5 0 36.97489452809489 33.92555158635162 32.00811262171468 0 0 0
1950 3 9 0 37.16109877264251 34.73186861776617 33.91149129435807 0 0 0
1947 3 4 0 37.302459312707576 34.813895888214475 32.50781886168315 0 0 0
1948 3 1 0 39.25676631927779 35.61124818141178 32.67389845340501 0 0 0
1945 3 8 0 38.972444261439925 35.297580286301816 30.99259837391476 0 0 0
1946 3 3 0 38.790286672363095 34.895837049728016 32.032518778214786 0 0 0
625 1 8 0 41.04846264261242 37.293222239169964 33.558770903631654 0 0 0
1941 3 1 0 41.33932474526994 34.46137737645799 32.58480122343444 0 0 0
926 2 14 0 41.46693514575082 37.184124068856875 30.79073304248618 0 0 1
626 1 3 0 40.94853354321656 38.22860145459319 34.13601457159717 0 0 0
3019 15 16 0 41.59549870439643 38.55013937997399 31.302480335970923 27 -21 0
628 1 1 0 40.12046800841484 38.08038375494855 34.847713698957094 0 0 0
644 1 9 0 42.10308162053678 33.25794281475264 36.5334052937355 0 0 0
649 1 1 0 40.54729630573571 33.79772344634496 38.34494473080056 0 0 0
1913 3 1 0 46.112452063439505 32.836099852742294 33.52233920412046 0 0 0
921 2 8 0 42.803483734943164 36.027393513593886 32.28380612735381 0 0 1
924 2 1 0 43.54583458938755 34.9293254103373 31.08309636724818 0 0 1
922 2 3 0 43.46784761781202 36.01763914568601 31.37337748519763 0 0 1
916 2 4 0 44.78092650992111 36.651989436389925 31.68966376565824 0 0 1
918 2 5 0 44.79594405497036 37.708636124851964 31.966520015062322 0 0 1
923 2 4 0 42.68119839742454 36.664532596011696 30.24198173311702 0 0 1
925 2 5 0 43.25329228206966 37.54727901072934 30.099309247139615 0 0 1
920 2 7 0 45.55144642913729 36.70503090198648 33.448015894234935 0 0 1
919 2 9 0 45.21064273774124 35.97934433956858 32.889921550392124 0 0 1
915 2 3 0 45.951599993426626 36.543475453113615 30.685155695280642 0 0 1
914 2 8 0 46.92563401281022 36.480801785193236 31.24016807777399 0 0 1
911 2 5 0 45.99163239538028 38.745215594700625 30.165442766905034 0 0 1
3031 15 12 0 42.41280578098636 38.292961971015075 32.00915448670113 27 -21 0
1906 3 1 0 46.928772164986015 32.09819909787504 35.97806826128786 0 0 0
1904 3 3 0 47.52806669125495 33.043692037417244 35.664006546108915 0 0 0
275 1 8 0 47.98134652341135 36.58593402282591 35.215766940056994 0 0 0
1903 3 8 0 46.864606034523675 33.88046601626091 35.549181192907035 0 0 0
635 1 1 0 42.76464886582386 36.51192718475166 34.98303274276964 0 0 0
917 2 1 0 45.88748081528348 35.51961308966606 30.21758131996633 0 0 1
1910 3 8 0 47.15874153633872 34.29653375020358 33.29614813946237 0 0 0
274 1 7 0 48.32637676223658 37.79458678386317 32.505008792914396 0 0 0
276 1 3 0 47.93849281149829 37.60112199674049 35.40874885163167 0 0 0
278 1 1 0 46.84973718231963 37.752254169263736 35.146298337381886 0 0 0
627 1 4 0 42.26346063245831 38.56837232950497 34.87166901372503 0 0 0
632 1 8 0 43.79227298395579 37.47536447329152 35.87032318891967 0 0 0
633 1 3 0 42.725639089202815 37.422126518363655 35.67700626396192 0 0 0
642 1 1 0 43.217738149603754 35.40704161074672 36.71795348794065 0 0 0
273 1 9 0 48.84384679849474 37.40152509900527 33.16854995776937 0 0 0
196 1 9 0 52.21723041549306 37.63328453000541 32.51160899989405 0 0 0
193 1 4 0 52.46266628170181 36.38196031484391 33.175423328197255 0 0 0
199 1 3 0 53.246842129146785 35.45152634767185 32.2655423933634 0 0 0
195 1 5 0 51.49584858400381 36.0860016721969 33.53052654241635 0 0 0
200 1 4 0 52.84168996556468 35.302882968036 30.80806630129096 0 0 0
204 1 7 0 51.25946026344684 34.819083767948136 60.024125305527626 0 0 -1
203 1 9 0 51.45303354486583 35.186813738334436 30.683820247116007 0 0 0
202 1 5 0 53.287430206509555 36.02530909375841 30.200824204489408 0 0 0
189 1 9 0 52.626303896609514 34.50337717348302 35.52173436588691 0 0 0
186 1 4 0 52.80050955926302 35.917241590138275 35.615454239273376 0 0 0
192 1 3 0 53.37793182782305 36.520609125441524 34.39065784658686 0 0 0
197 1 7 0 52.70510055192068 38.277305949049506 33.003829605876646 0 0 0
194 1 1 0 53.472747106356124 37.65071674855105 34.54757321782647 0 0 0
201 1 1 0 54.31068125743587 35.80832682935094 32.25062263270181 0 0 0
190 1 7 0 53.43991546550252 33.99539043969361 35.519215503300316 0 0 0
198 1 8 0 53.45309704806847 34.46599606124561 32.786630789361105 0 0 0
206 1 3 0 53.542047135373885 33.94941996181607 30.255825304573055 0 0 0
205 1 8 0 52.778438265825756 33.21347112702594 60.11913292169788 0 0 -1
270 1 4 0 48.75670502736274 38.318153178418996 34.26806021508982 0 0 0
1901 3 9 0 49.29942853982221 34.42022964077278 36.603136530057505 0 0 0
224 1 14 0 30.127072214110097 36.05975132087854 31.364854289032674 1 0 0
208 1 1 0 54.03164767741295 33.38590653409015 31.062625225032587 0 0 0
1757 3 3 0 58.74598639777657 32.88963555516948 33.85961498287682 0 0 0
191 1 8 0 54.36860543063005 36.12006050632998 34.31968321893327 0 0 0
1756 3 8 0 58.85159475977008 34.017106459342656 33.87793345276223 0 0 0
219 1 8 0 59.37201300307059 34.098721183337005 30.40866462131101 0 0 0
226 1 8 0 58.79944740138629 36.6662725475734 33.08722555612327 0 0 0
222 1 1 0 58.085742588379745 34.26327470209473 31.411206914481138 0 0 0
227 1 3 0 58.16341929894757 36.70456023733824 32.234373809898756 0 0 0
229 1 1 0 57.30944019217863 36.095783501952965 32.497664898205365 0 0 0
221 1 4 0 58.916438940876446 36.15610302947596 31.03418614509324 0 0 0
228 1 4 0 57.83990951565525 38.23085208519483 32.04918813845256 0 0 0
220 1 3 0 58.47952971236562 34.8196183263127 30.572998519385088 0 0 0
236 1 1 0 56.768709273224886 37.79244815200194 30.144206686289603 0 0 0
1755 3 7 0 56.93453015960185 34.51475604669546 33.91606836258371 0 0 0
231 1 14 0 57.22142263847719 38.580572338893056 33.34512204584248 0 0 0
223 1 5 0 58.83787062630083 36.985912308346876 30.339699305031317 0 0 0
1754 3 9 0 56.474419077979164 33.76796678157067 33.48342911375066 0 0 0
234 1 3 0 56.85961587760163 38.62433943587219 30.98780857433423 0 0 0
233 1 8 0 55.874324739525306 38.76214836210079 31.432706905162295 0 0 0
230 1 5 0 58.765368018992476 38.923160361848474 32.04899599603565 0 0 0
2973 11 12 0 59.682174649449394 39.3200989685833 60.114526352492504 0 0 0
212 1 8 0 55.972273856523216 35.063017608275274 30.928298764926918 0 0 0
1972 3 7 0 31.59155517647996 40.055854055813086 32.37985334851406 0 0 0
1975 3 4 0 33.59665838893228 42.48376876785183 31.162157193029795 0 0 0
1977 3 5 0 33.22657386158079 42.46566817380041 32.22314135771758 0 0 0
1981 3 3 0 32.325904917829654 43.211212456716396 30.451881409889076 0 0 0
1984 3 5 0 31.68108085536024 43.74380401592815 32.50135804061732 0 0 0
1982 3 4 0 31.4971943651652 44.11597195084691 31.503147079767988 0 0 0
1980 3 8 0 31.69864485335477 42.41221531056462 30.01315028919524 0 0 0
1974 3 3 0 33.93998587925762 41.1251547688323 30.665071990529015 0 0 0
1973 3 8 0 33.799421028857076 40.82391591674917 59.86217524585747 0 0 -1
1983 3 1 0 32.70851198141021 43.88342965767097 59.86429043699576 0 0 -1
1978 3 9 0 34.767429341764725 43.2609179279559 31.152002573732922 0 0 0
1976 3 1 0 35.03599009951229 41.140986235205574 30.663989212460358 0 0 0
1979 3 7 0 35.05194935335955 43.15064835978909 30.19934040657502 0 0 0
1971 3 9 0 31.88897826043468 40.27525145268132 31.499508564720696 0 0 0
1990 3 1 0 32.76849370685964 45.646631849844226 30.94852149391647 0 0 0
1988 3 3 0 31.85135125947731 45.64016140442443 31.440714781380795 0 0 0
623 1 14 0 40.344501916161505 38.88031715094984 31.963203170827338 0 0 0
618 1 8 0 38.618304265631245 39.274141237392364 33.695554221733985 0 0 0
620 1 4 0 40.645931304269034 39.42624463783107 33.27213092403347 0 0 0
619 1 3 0 39.42449075740278 40.076982237666236 33.825802240306 0 0 0
613 1 4 0 39.061342555812104 41.37424906482235 33.08543643164795 0 0 0
616 1 9 0 38.90414789951692 41.20373848283074 31.666290939470482 0 0 0
617 1 7 0 38.44741639699288 40.39136992595799 31.467611657244984 0 0 0
615 1 5 0 38.168750836222 41.74840634769575 33.50740323526293 0 0 0
612 1 3 0 39.99811433363478 42.51107019123966 33.37989871918814 0 0 0
606 1 4 0 39.60405100203096 43.6307547895305 34.36794969084662 0 0 0
614 1 1 0 40.157967390989285 42.89116111138662 32.37725994570707 0 0 0
608 1 5 0 38.567802650679525 43.81082622625716 34.0796764378424 0 0 0
621 1 1 0 39.49338921525619 40.24985439915702 34.91758622985596 0 0 0
622 1 5 0 41.45466877998449 40.12271484978409 33.258522453151166 0 0 0
3022 15 12 0 41.217721349722865 40.53862405802771 30.57032299392107 27 -21 0
611 1 8 0 41.05545885030563 42.22728606108771 33.638553316942804 0 0 0
609 1 9 0 39.769111829189164 43.17677001639959 35.715678864485454 0 0 0
3020 15 11 0 41.852241284412884 39.69290357738387 30.318354040302836 27 -21 0
99 1 7 0 36.95822044236728 45.37420823963814 30.931629331752745 0 0 0
454 1 5 0 37.54959222217632 40.4695214864034 38.32421661674282 0 0 0
2282 4 7 0 39.21272101648782 42.991417234672106 59.08359167059975 0 0 -1
629 1 5 0 43.00415006323696 38.86636726494472 34.133382584902854 0 0 0
2288 4 9 0 42.057097250130134 45.05553964570755 31.42915884529917 0 0 0
2287 4 5 0 41.91713927586464 43.012341481415255 30.92226971940321 0 0 0
3025 15 12 0 43.85140906078996 39.608469091887244 31.074176112522604 27 -21 0
2285 4 4 0 42.41234768145386 43.95314400580288 30.591980385291073 0 0 0
3026 15 12 0 43.45645573555297 41.1720336606336 30.37387312727618 27 -21 0
271 1 1 0 47.313529889506086 39.95980180227215 34.393475356223874 0 0 0
2294 4 5 0 45.26975045392639 42.37706736721313 31.598546161179495 0 0 0
2292 4 4 0 44.482683569426506 43.038616835145355 31.90304623821813 0 0 0
2301 4 5 0 45.520256010821996 42.149966522599854 33.723301596342 0 0 0
2299 4 4 0 45.74139052819418 43.21964907537759 33.99839155491292 0 0 0
2302 4 14 0 47.12038788947502 43.64805498798897 33.70346388190018 0 0 0
2291 4 3 0 43.94020846784559 43.74363240553113 30.653496273239163 0 0 0
2298 4 3 0 44.92721417051176 43.99062310434964 33.00831603451899 0 0 0
2309 4 9 0 42.78579919372266 43.5098953260827 35.366734766592316 0 0 0
2296 4 7 0 43.20298673181959 43.03812273482929 33.341172026756716 0 0 0
2295 4 9 0 43.44235092461702 42.358136663467036 32.64903847855083 0 0 0
2300 4 1 0 45.504752978481974 44.87325791546205 32.58833809328201 0 0 0
2785 4 9 0 47.696004498074544 44.514957690200184 30.40586772509339 0 0 1
2297 4 8 0 44.07270766429641 44.458989966940024 33.57057647455447 0 0 0
2310 4 7 0 42.304515740811006 43.54965224772509 36.17786336661964 0 0 0
2786 4 7 0 46.85340304960991 44.038598630335684 30.507728590815912 0 0 1
2290 4 8 0 44.46249667312447 44.65791620471711 30.39992654131331 0 0 0
2305 4 3 0 45.340353790896216 43.46400569378101 35.45605772289405 0 0 0
2304 4 8 0 45.25862604025279 44.61375448310932 35.65092814810879 0 0 0
2308 4 5 0 44.002788739683524 41.75309054470886 35.72800836809666 0 0 0
2306 4 4 0 43.96481611698249 42.862075745227386 35.94006267438868 0 0 0
268 1 8 0 47.05259540099911 38.966153482989675 32.99456823557979 0 0 0
269 1 3 0 47.874942980691145 39.424084441124414 33.60726126844449 0 0 0
272 1 5 0 49.79207248509943 38.824298733600514 34.50304060658101 0 0 0
258 1 5 0 50.956782859807916 39.42640962678348 32.26642079275496 0 0 0
266 1 14 0 47.765192241913994 41.624980635269296 32.78611421772052 0 0 0
2821 1 12 0 48.09317810320171 42.30735393149518 34.71795633463533 0 0 0
2809 1 16 0 48.06157124073023 42.66933386932441 33.69626719603059 0 0 0
261 1 8 0 48.603583014205554 39.24622767399241 31.095740709728595 0 0 0
263 1 4 0 48.59557751555144 40.52833380857473 32.90904600624046 0 0 0
256 1 4 0 50.516280422266355 39.8563128808307 31.398194010143197 0 0 0
262 1 3 0 49.05523045792263 40.11481063955409 31.531135743591104 0 0 0
265 1 5 0 49.53106240271485 40.86880388765987 33.4992131324211 0 0 0
255 1 3 0 51.23640234174708 41.10690302106806 31.096310735137344 0 0 0
264 1 1 0 48.82916641203415 41.00170061300066 30.94962940546118 0 0 0
257 1 1 0 51.74779967051924 41.40380645283993 32.00570440422119 0 0 0
254 1 8 0 50.588674569821976 41.907493076394566 30.820216139786474 0 0 0
2813 1 12 0 49.70987850466409 43.14776236762943 32.248326452759024 0 0 0
2810 1 11 0 49.32820938229665 43.36271091126171 33.22461821833374 0 0 0
2811 1 11 0 50.50461057587635 43.32522030561027 34.273416230771026 0 0 0
2815 1 12 0 50.6402197018633 42.21139897501665 34.44677964725627 0 0 0
2819 1 12 0 52.41246380251594 42.96540146008153 33.83770192977004 0 0 0
2814 1 11 0 51.82166417087106 43.86346930808481 33.73470624903536 0 0 0
2812 1 12 0 48.96243505440796 44.34883780586781 33.249803122927844 0 0 0
2818 1 12 0 51.75127605923835 44.28234818656179 32.66132447027965 0 0 0
2816 1 12 0 50.222192715195305 43.850861918692374 35.23617302871049 0 0 0
259 1 9 0 50.72930439572653 38.919763989731294 30.37123261164838 0 0 0
1213 2 14 0 52.71315062477103 44.02274363523197 35.966532856085 0 0 0
248 1 3 0 53.673455060651676 41.07390727990557 30.45914559022385 0 0 0
250 1 1 0 53.698670867442374 40.6945482154333 31.565792050697237 0 0 0
247 1 8 0 53.84551032254906 42.18049833127116 30.51013704906423 0 0 0
1985 3 14 0 30.19524836412803 44.02623167410263 31.032488815146948 0 0 0
2988 12 12 0 59.02595127170461 38.614908380127055 34.364816040992636 0 0 0
2981 12 12 0 30.036066474518158 40.257562359529786 32.999812804735235 1 0 0
2977 12 12 0 60.12088482541651 41.72891223701369 31.232459255826214 0 0 0
1192 2 14 0 57.247474964365026 39.13670258313016 35.40474299245716 0 0 0
2986 12 12 0 60.04667374954494 43.93863184445421 33.11569826639262 0 0 0
2982 12 16 0 58.155333370085025 39.26247427199724 34.222905551712024 0 0 0
2978 12 12 0 58.48641339181719 42.14833025018665 31.594616859263663 0 0 0
2980 12 12 0 30.075447305945364 41.61926705683798 34.053889824258555 1 0 0
2975 12 11 0 59.4905472384244 42.062887627960336 31.981844280210673 0 0 0
2974 12 16 0 59.68337819286913 43.5389796935314 32.16021397978981 0 0 0
2979 12 11 0 58.30898160842367 40.76799421960071 33.892891048662 0 0 0
237 1 5 0 58.08968015103831 40.32017750829739 30.714541506124302 0 0 0
2976 12 11 0 59.628007049953894 41.17675089679196 33.28465369580306 0 0 0
235 1 4 0 57.27865534074267 39.827659077688814 30.147854073440396 0 0 0
1402 2 14 0 58.37800600781299 44.07272210383782 32.00032589443576 0 0 1
243 1 1 0 55.88873124848128 40.94865554811643 31.390406506423652 0 0 0
2983 12 12 0 57.48344156353359 41.182751454290184 33.31123833482709 0 0 0
2984 12 12 0 58.165421026300095 41.327665629390594 34.86010182523475 0 0 0
241 1 3 0 56.14798948240683 40.847209944829885 30.343031849841537 0 0 0
1993 3 7 0 32.002816109550324 48.19728661724146 33.04203739180858 0 0 0
1991 3 5 0 31.29410837370415 45.712543003508706 33.51661037801637 0 0 0
1989 3 4 0 31.944690554032114 46.28323664095777 32.841020947536755 0 0 0
1997 3 1 0 33.91055509351154 45.330718530944 33.13689865951344 0 0 0
1999 3 9 0 32.66159078444731 47.26525482449351 35.319139398690055 0 0 0
1994 3 8 0 33.99384131562577 47.0016553873731 32.66222961491653 0 0 0
1995 3 3 0 33.42844787598789 46.26866864201092 33.29958194748888 0 0 0
1992 3 9 0 31.382983765038205 47.545542181836666 32.75091423225105 0 0 0
1996 3 4 0 33.69049209907947 46.52424441717204 34.75770163811275 0 0 0
1998 3 5 0 33.67281265559326 45.48952293764296 35.156556171605075 0 0 0
1987 3 8 0 31.130142745026088 46.1115405647812 30.795009893199936 0 0 0
2002 3 3 0 34.996871861144065 47.316514097540804 34.83267066863131 0 0 0
2005 3 5 0 34.097974151877324 49.08726073123596 33.89986959742235 0 0 0
2003 3 4 0 34.8653685021805 48.89373822059176 34.70792634406932 0 0 0
2006 3 9 0 34.317257689789955 49.528124474997476 35.916523771266895 0 0 0
2007 3 7 0 35.13972013418064 49.57708801074544 36.41830150754057 0 0 0
2213 4 8 0 30.4484559494343 51.36799110308337 32.367994442009035 0 0 0
2220 4 8 0 32.13008860397681 50.64351806406978 30.808411016764037 0 0 0
2223 4 1 0 33.60372213398115 50.620767761499906 31.562538237248983 0 0 0
2000 3 7 0 32.06441220130558 47.36362398147067 34.575044588587076 0 0 0
2211 4 9 0 59.61723171549534 53.3984518490379 33.39015192676553 -1 0 0
2221 4 3 0 32.90781116497355 51.32534551296984 31.085658018865466 0 0 0
2212 4 7 0 59.74290150392217 54.36803824149426 33.56286685371404 -1 0 0
69 1 5 0 30.563163216039445 48.94889098868203 59.58840339636612 0 0 -1
604 1 8 0 41.10442764994346 45.1743744517843 33.91106123309417 0 0 0
605 1 3 0 40.06716784790664 45.003000376733695 34.10325101354357 0 0 0
607 1 1 0 39.459988627649366 45.372747751706484 33.2651232404788 0 0 0
2001 3 8 0 35.648672307842254 46.84577531569954 34.031491306359044 0 0 0