LAMMPS data file via write_data, version 23 Jun 2022, timestep = 10000000

2828 atoms
10 atom types
2814 bonds
9 bond types
5200 angles
15 angle types

33.22594642052677 62.68005157946858 xlo xhi
29.88494642052866 59.339051579468574 ylo yhi
30.05994742052805 59.51405257947212 zlo zhi

Masses

1 1.00794
2 1.00794
3 12.0107
4 12.0107
5 1.00794
6 1.00794
7 1.00794
8 1.00794
9 15.999
10 15.9994

Pair Coeffs # lj/cut/omp

1 0.038 2.44997
2 0.038 2.44997
3 0.039 3.87541
4 0.039 3.87541
5 0.038 2.44997
6 0.038 2.44997
7 0 0
8 0.038 2.44997
9 0.228 2.85978
10 0.228 2.85978

Bond Coeffs # harmonic/omp

1 340.618 1.105
2 340.618 1.105
3 322.716 1.526
4 340.618 1.105
5 340.618 1.105
6 340.618 1.105
7 384 1.42
8 540.634 0.96
9 833.72 1.208

Angle Coeffs # harmonic/omp

1 39.5 106.4
2 44.4 110
3 39.5 106.4
4 44.4 110
5 39.5 106.4
6 46.6 110.5
7 44.4 110
8 44.4 110
9 70 109.5
10 46.6 110.5
11 44.4 110
12 58.5 106
13 39.5 106.4
14 57 109.5
15 57 109.5

Atoms # full

679 1 10 0 39.3853149383995 35.033777447331026 32.97598159830165 0 0 1
682 1 3 0 38.76159041838722 35.39498364215169 30.63174690899278 0 0 1
683 1 4 0 37.34962316712318 35.826724537178755 30.889621890731853 0 0 1
686 1 10 0 36.854756863903226 34.73903917157638 31.750216366339696 0 0 1
2331 4 7 0 38.07527011653615 31.66606162940705 33.34275602588384 0 1 0
2327 4 4 0 38.88386095347448 32.26263206491167 34.93627074601944 0 1 0
2330 4 10 0 38.2276184733037 32.497778862078775 33.68094197431753 0 1 0
1197 2 1 0 34.19675922867667 32.29234937801362 32.022898360475125 1 0 0
681 1 8 0 38.72547301202296 34.28936195697994 30.463660428979132 0 0 1
2329 4 5 0 38.5603226544565 31.30673616641459 35.32247275194608 0 1 0
1183 2 1 0 34.99722642987585 31.52503419382806 33.892987042812976 1 0 0
1195 2 3 0 33.98948829822854 32.0537463890408 30.921499580390872 1 0 0
2116 4 3 0 37.16669917649613 36.91803220986163 36.412042083137244 0 1 0
685 1 5 0 37.17520680489202 36.89889849427172 31.24315011151978 0 0 1
680 1 7 0 38.430929401171035 34.73888251129697 32.86408045337181 0 0 1
2109 4 4 0 35.80886149979323 36.94205873552093 35.846054619731554 0 1 0
692 1 5 0 34.62169506834142 35.54876923378583 30.26932537933018 0 0 1
1190 2 1 0 36.280458961420194 30.493432370137466 31.89028577590596 1 0 0
1181 2 3 0 34.87663248773355 30.422492038328503 34.09412514233625 1 0 0
2118 4 1 0 37.609402582725004 35.883428940408486 36.300022092087794 0 1 0
1929 3 10 0 39.45391621637678 31.169445209042916 30.403708523478493 0 1 0
1175 2 4 0 33.95813821414631 30.20945202295972 35.29056420787056 1 0 0
1180 2 8 0 35.929564715750885 29.99163498144169 34.26218776550229 1 0 0
1188 2 3 0 35.28233411999684 30.01236501679007 31.607960453393076 1 0 0
1189 2 4 0 34.59318360998772 30.696257717044986 30.434010221014077 1 0 0
1182 2 4 0 34.31006153175521 59.23904386836924 32.80925763474135 1 -1 0
1187 2 8 0 35.3685842997653 58.442936796293054 31.301464179578534 1 -1 0
1174 2 3 0 62.62453517334457 31.537138592004286 35.71771295736127 0 0 0
1173 2 8 0 33.68767428525964 32.52701069073104 35.5836189715527 1 0 0
687 1 7 0 37.34982008049962 34.849845736301646 32.593356119253286 0 0 1
2107 4 8 0 35.91598467996991 37.508570925138905 33.75120617935221 0 1 0
1184 2 5 0 33.29271356469232 30.137142489019148 32.51809774343242 1 0 0
2112 4 5 0 35.23375850639897 36.18282427605217 36.380820898561055 0 1 0
1176 2 1 0 61.751886427900054 31.507180442147835 35.024088925443586 0 0 0
2108 4 3 0 35.85293941169071 36.63684521354813 34.34979136702549 0 1 0
2110 4 1 0 36.45691958056695 35.70319611721668 34.102276594635 0 1 0
2111 4 2 0 34.840292133585415 36.344428206589264 34.113469572184776 0 1 0
2113 4 10 0 35.36677684631988 38.29082418792165 35.99062414329766 0 1 0
1194 2 8 0 34.59146959798 32.78056749241932 30.370162578672847 1 0 0
2325 4 8 0 40.57706177502962 32.59019784554831 33.50065166451115 0 1 0
2326 4 3 0 40.457472029872214 32.297114640058126 34.606252608187766 0 1 0
2322 4 5 0 40.463555611532506 30.351867462982913 35.54580835824342 0 1 0
676 1 4 0 39.684340392705124 35.85448408588862 31.80356892134905 0 0 1
1177 2 5 0 34.635220028307636 59.28339219872001 36.05218599226727 1 -1 0
2333 4 3 0 38.5983587884349 33.36281072578958 35.93457350812807 0 1 0
2332 4 8 0 37.55997161101934 33.76387318219872 35.796191832354125 0 1 0
2335 4 1 0 39.22287104503474 34.21382907313975 35.59220815326644 0 1 0
1930 3 7 0 38.64157476521188 30.828985288671742 30.824915022835565 0 1 0
675 1 3 0 41.12218285558915 35.626914526705455 31.452266094981688 0 0 1
669 1 4 0 41.74006357049999 34.246012729664194 31.704798059490347 0 0 1
671 1 5 0 40.94490513145871 33.41941703137786 31.5257761681202 0 0 1
673 1 7 0 43.06414079855495 33.61884919602316 32.991149442516914 0 0 1
672 1 10 0 42.34868979699754 34.2330128780254 33.01977005450968 0 0 1
2328 4 1 0 40.84572352236211 33.137427778837406 35.20372162083609 0 1 0
2320 4 4 0 41.167634233756516 30.965451929418414 34.91465176173069 0 1 0
670 1 1 0 43.6110166787785 34.9252707832878 30.612871744726135 0 0 1
668 1 3 0 42.95694253823372 34.05831344398851 30.78708777927781 0 0 1
340 1 4 0 46.11991214618432 34.86212200223785 34.32893452545135 0 0 0
343 1 10 0 45.15427268764085 33.84364889141346 34.44999948867548 0 0 0
336 1 10 0 46.94045566718148 32.183216226299635 33.28123522187207 0 0 0
339 1 3 0 47.0957389748737 34.6393611145403 33.139767368405 0 0 0
338 1 8 0 46.52990079555992 34.78057515279593 32.19308975565283 0 0 0
2319 4 3 0 42.57966994927088 31.189405741416902 35.559351529494606 0 1 0
345 1 8 0 44.511119950055054 35.6654374613737 33.24530562240516 0 0 0
346 1 3 0 45.29186716821125 36.01893921268531 33.956250224284354 0 0 0
350 1 10 0 43.78837588593498 35.942822772932786 35.90164807610204 0 0 0
667 1 8 0 42.51600828932276 33.956482039134585 59.22856167816186 0 0 0
2321 4 1 0 42.538355544087196 31.871760527080376 36.447127192127276 0 1 0
2311 4 8 0 45.08140338773134 30.405228350780536 35.96604926115406 0 1 0
348 1 1 0 45.95210000402535 36.62041312784938 33.27091595098825 0 0 0
658 1 10 0 46.09432024903818 31.123133967505645 30.294165310155257 0 0 1
659 1 7 0 45.95457141964463 31.42138036743691 31.197039221485507 0 0 1
347 1 4 0 44.614924542637866 36.7766572992743 35.14016934549494 0 0 0
351 1 7 0 43.001292262632504 35.69858674473021 35.43897544039576 0 0 0
655 1 4 0 44.81753965405311 30.824555334171095 59.25279218433888 0 0 0
661 1 3 0 43.94865739418894 32.07954623602932 59.15858921110646 0 0 0
662 1 4 0 43.80097167265471 32.77312634894434 31.055623296033286 0 0 1
657 1 5 0 44.396009356819924 30.081915364569394 30.448014714627114 0 0 1
664 1 5 0 44.77637346473634 32.96259553336567 31.489187941359948 0 0 1
342 1 5 0 46.68564309345498 35.008401168544836 35.25561834245227 0 0 0
666 1 7 0 43.63381653604326 31.15758026112126 32.188832970617625 0 0 1
665 1 10 0 43.08962536309929 31.89361712792912 31.940430583434704 0 0 1
2318 4 8 0 43.33036837552419 31.53425085310268 34.82792607913103 0 1 0
344 1 7 0 44.273045497282354 34.17827389271414 34.10575260482897 0 0 0
674 1 8 0 41.29948326116999 35.930371190574974 30.407753804293105 0 0 1
2310 4 7 0 45.38177658372237 59.190871677406676 32.68988389673708 0 0 0
2309 4 10 0 45.0166770118421 30.09840935063337 33.46333942048025 0 1 0
299 1 1 0 47.92389700544228 33.18195615274806 37.33177708395481 0 0 0
296 1 8 0 48.70287544465616 32.60601312272981 38.84139319435271 0 0 0
1074 2 7 0 44.94071221196273 36.183639900898235 58.47909380152167 0 0 -1
337 1 7 0 47.34005645341884 31.66631325532941 32.53971214432998 0 0 0
300 1 5 0 46.847943246437154 31.306031533026076 36.92219065410174 0 0 0
333 1 4 0 47.851821915447715 33.24254833793428 33.22594991280818 0 0 0
331 1 8 0 48.34362491289984 32.87038442223517 31.217101015721003 0 0 0
341 1 1 0 47.88578010874351 35.407528191774695 33.14993108121918 0 0 0
335 1 5 0 48.45094835531395 33.2531591263318 34.18741141972291 0 0 0
329 1 10 0 48.92945239868675 30.655813965504024 31.66821464228207 0 0 0
332 1 3 0 48.81913467443807 32.94199479603924 32.129645423761545 0 0 0
334 1 1 0 49.49308448616247 33.76646764751639 32.103850225981816 0 0 0
326 1 4 0 49.492795624158255 31.65288302754554 32.41112062935597 0 0 0
328 1 5 0 49.339024236746596 31.458059501257743 33.49009030422929 0 0 0
325 1 3 0 50.93937935023666 31.851710801056797 32.073639955658955 0 0 0
319 1 4 0 51.827230589920234 31.94138474526938 33.375425711804525 0 0 0
321 1 5 0 51.37231378102387 32.75624533144037 33.93890159841941 0 0 0
322 1 10 0 53.131080008405796 32.245117091597365 32.90621345542895 0 0 0
323 1 7 0 53.814122644774635 31.631971221489476 33.187431998606684 0 0 0
318 1 3 0 51.76353447690495 30.726612492490254 34.25672458247204 0 0 0
311 1 3 0 50.485216318535265 31.399095762944118 36.25785635101212 0 0 0
312 1 4 0 51.826585875719175 30.877703327647097 35.7209448642752 0 0 0
315 1 10 0 52.85518799846326 31.766436066553823 36.04320035281474 0 0 0
316 1 7 0 52.46492884709267 32.49701850416455 36.46595205187916 0 0 0
310 1 8 0 50.519242876923556 32.04019884351849 37.18635836330129 0 0 0
313 1 1 0 50.024134695321635 32.06214606448373 35.474749644732746 0 0 0
320 1 1 0 52.60910723921274 30.089847123573282 33.965893720995005 0 0 0
398 1 5 0 50.127537022349856 35.10950416435163 34.108544940846244 0 0 0
396 1 4 0 50.59551175144981 35.57605944393858 34.996308310925635 0 0 0
327 1 1 0 51.21399192335049 32.746527463326665 31.46402465792433 0 0 0
405 1 5 0 52.47344702596664 34.761642816881476 33.54918468623172 0 0 0
412 1 5 0 53.1068954800085 35.25054823688605 30.585383625688557 0 0 0
305 1 4 0 49.48032549274313 30.254723101915136 36.59134454374004 0 0 0
402 1 3 0 51.72544133788103 36.56061436598457 34.62010554494394 0 0 0
403 1 4 0 52.49741199995008 35.86979946694575 33.40238362010073 0 0 0
410 1 4 0 52.71453276453686 36.227777549454615 30.808530013964777 0 0 0
314 1 5 0 52.12857863798203 29.89356397948028 36.16707633926174 0 0 0
394 1 8 0 48.668740223489614 36.51258951993079 35.00154318754261 0 0 0
1018 2 7 0 53.41715375453486 29.94390945428313 38.0781332563336 0 0 0
1222 2 8 0 54.82361316035731 34.249126751589564 34.76085315269172 0 0 0
324 1 8 0 51.32898302738391 31.107967656160415 31.399587962954076 0 0 0
317 1 8 0 50.90076134800651 30.073461395512318 33.948430602996076 0 0 0
330 1 7 0 49.741757946526654 30.370851283218062 31.236258401603532 0 0 0
399 1 10 0 51.17369174555697 34.54420682914012 35.811877748034014 0 0 0
395 1 3 0 49.40103209660598 36.147170727968735 35.76663209077418 0 0 0
387 1 8 0 47.5546011818003 37.70165839549527 36.615946788027514 0 0 0
406 1 10 0 53.81931276755069 36.31400549564099 33.517436434494236 0 0 0
298 1 4 0 47.37798629226186 31.199126886367345 37.8629522840944 0 0 0
397 1 1 0 48.97689240143657 35.2210158419204 36.187799747004966 0 0 0
307 1 5 0 50.11951001484283 58.809816229346325 36.692807331660624 0 -1 0
421 1 7 0 53.34260172745966 34.65674283317593 57.096715011108294 0 0 -1
418 1 1 0 50.813764353290956 36.08943780566419 59.26664182720271 0 0 -1
1193 2 7 0 62.36854917197594 30.237244619647644 58.92213862716779 0 0 -1
1192 2 10 0 33.69156764263547 59.254390751532306 59.25666220392721 1 -1 -1
1227 2 10 0 56.246889146034945 32.42056482451847 35.910957848330355 0 0 0
1228 2 7 0 55.323368384590886 32.10394923854521 35.68194301414581 0 0 0
1196 2 4 0 61.952310844191665 32.33964937615798 30.708270448211998 0 0 0
1201 2 8 0 61.816822349442134 32.656616588833295 32.82159738632642 0 0 0
1204 2 1 0 60.23285815652964 32.55401141974774 31.947006030186934 0 0 0
1202 2 3 0 61.259306210359696 32.97503357201369 31.94378499318609 0 0 0
1221 2 7 0 55.19600518993425 34.88527086211882 32.79880757141593 0 0 0
1224 2 4 0 56.33431553746069 33.82315383842887 36.315592761232416 0 0 0
1220 2 10 0 56.08314509385238 34.61492371578356 32.617780464493805 0 0 0
1214 2 7 0 58.99932885655768 33.63196164291705 35.00631915982599 0 0 0
1219 2 5 0 57.28148806495168 33.35407581940627 33.7890196546963 0 0 0
1213 2 10 0 59.5109253179946 33.800277503318604 34.238525259681055 0 0 0
1217 2 4 0 56.816287277480704 34.365435399830034 33.86389220431961 0 0 0
1211 2 1 0 59.28813294342956 35.76786839933245 31.582461038672985 0 0 0
1218 2 1 0 57.87135729092513 35.955596598298904 35.06948248053227 0 0 0
1216 2 3 0 57.832302356319516 35.48601421613502 34.0587179901937 0 0 0
1215 2 8 0 57.46901663667406 36.26719390337288 33.51768369830665 0 0 0
1209 2 3 0 59.59972513083666 34.900021496078175 32.14596191296285 0 0 0
1210 2 4 0 59.25730874948005 35.08233978547472 33.67211123071514 0 0 0
1212 2 5 0 59.85230534621875 35.82684127161821 34.16794030715083 0 0 0
1223 2 3 0 55.82563731182521 34.5843185396702 35.06150599690973 0 0 0
1225 2 1 0 55.66504321390353 35.65973455564521 35.26899614576335 0 0 0
1205 2 5 0 61.43329733847846 34.98893504564273 30.857192497070173 0 0 0
1208 2 8 0 58.99069540006545 34.07248999726779 31.81304220680498 0 0 0
1203 2 4 0 61.03372520226637 34.53232329980528 31.803155573941016 0 0 0
1206 2 10 0 61.87611946913999 35.107110871106556 32.865933410758366 0 0 0
1207 2 7 0 61.597992308367026 36.01047972760508 33.06318168980529 0 0 0
1170 2 5 0 61.52032390847464 30.49620907032257 37.27614894403627 0 0 0
1375 2 7 0 57.53608608573377 31.005739833583682 33.046834949708064 0 0 0
1396 2 7 0 54.998191308262555 35.661297132160364 58.56320140245514 0 0 -1
1395 2 10 0 55.9542406361585 35.890771733814475 58.71782923650677 0 0 -1
1374 2 10 0 57.926735432766925 31.291689338139264 32.17539891205499 0 0 0
2813 3 9 0 59.236618898537735 30.916681556558324 35.42881727256404 -1 -2 3
1403 2 6 0 57.405694062335364 37.643732882196005 58.29127511797453 0 0 -1
2814 3 9 0 58.22756843215016 30.25095018709226 35.69252379004035 -1 -2 3
1169 2 1 0 60.841638348235065 33.039883435773824 36.67350222507257 0 0 0
1168 2 4 0 62.14353283971923 31.390607923200186 37.14656728321651 0 0 0
1394 2 5 0 57.32693895221981 34.408807381265845 58.579030180404686 0 0 -1
1383 2 8 0 55.60154836462454 32.35231583003987 58.97681591936574 0 0 -1
1373 2 5 0 56.23798362477756 30.611541780122728 31.361486646684096 0 0 0
698 1 1 0 34.3898879778908 37.47324649246742 30.614258519977888 0 0 1
2115 4 8 0 37.86498336383135 37.634126515618206 35.89747453208702 0 1 0
678 1 5 0 39.49203384097323 36.89492438017326 32.08230122901288 0 0 1
1587 3 7 0 38.728107381555795 40.09118912778863 36.578485090204175 1 0 0
1589 3 3 0 37.774506886185115 41.84425979612529 34.091696133260534 1 0 0
1586 3 10 0 38.17255332187052 40.131268155104706 35.76986864066298 1 0 0
1590 3 4 0 36.858228960126695 41.03244117121769 33.21975193145845 1 0 0
1593 3 10 0 37.675127623171846 40.11734419994421 32.47625985009711 1 0 0
1592 3 5 0 36.239330494741594 40.500190416382225 33.8752607806784 1 0 0
1583 3 4 0 37.629878618790066 41.437553587052136 35.55512901514876 1 0 0
1591 3 1 0 37.534635012453904 42.94696978135241 34.03469017841093 1 0 0
1585 3 5 0 36.584294646239904 41.50304617096648 35.90698440285825 1 0 0
1588 3 8 0 38.80522688047007 41.76181846782561 33.615041687483405 1 0 0
1584 3 1 0 38.02982501566294 43.47770650008571 36.19725614898497 1 0 0
1598 3 1 0 35.77740429318165 42.89203547885578 32.686617132886546 1 0 0
1596 3 3 0 35.96736799087878 41.872887198735505 32.262993781715565 1 0 0
1595 3 8 0 36.49306486056578 42.014877593818596 31.309079296479695 1 0 0
1594 3 7 0 38.37983021855991 39.78995790787397 33.00041518114113 1 0 0
1605 3 1 0 33.31547645853634 40.74228113006104 33.57508634000665 1 0 0
1597 3 4 0 34.590152879484414 41.29422806082642 31.997096388174477 1 0 0
1602 3 8 0 34.16234035508301 42.26756679322199 33.95280434535977 1 0 0
1603 3 3 0 33.643372741041055 41.677878537313326 33.124584387608714 1 0 0
1600 3 10 0 34.71218723158587 39.889833941237896 31.951015381795802 1 0 0
1599 3 5 0 34.26787245829284 41.611620159666415 30.940771755305963 1 0 0
1781 3 5 0 40.01090543959311 38.80962386118949 59.46454817253283 0 0 -1
1601 3 7 0 34.39371042839983 39.6120096259612 32.79233594930629 1 0 0
1557 3 5 0 62.32372876159221 40.968831827596055 36.46577245793891 0 0 0
1612 3 1 0 33.64519347328222 44.12547918608154 33.21789308417335 1 0 0
1582 3 3 0 38.42421945791595 42.42619632081014 36.396006664586615 1 0 0
1581 3 8 0 39.4720854557006 42.514620211623985 36.066089658767666 1 0 0
695 1 8 0 35.60717765214367 38.13703050906119 58.89382313998266 0 0 0
1610 3 3 0 62.477896940029126 43.83371949014848 32.293242248673714 0 0 0
2061 3 5 0 38.07254471000967 45.22629459781747 34.44281492857654 0 0 0
1545 3 7 0 34.383371123075484 43.39814606245208 36.14933512448269 1 0 0
2056 3 7 0 40.74532702338957 43.879825792595234 34.28275481699544 0 0 0
2122 4 8 0 38.74462054380726 38.496888944025635 38.222295569598735 0 1 0
696 1 3 0 34.809145886440106 37.415678128814484 59.00784079959341 0 0 0
1787 3 1 0 38.210449789187436 40.405269187942416 58.61755322161551 0 0 -1
1609 3 8 0 33.64865956590618 43.872548773939414 31.44780195682927 1 0 0
349 1 5 0 45.35629791494449 37.18460750563195 35.825778473648526 0 0 0
1780 3 1 0 40.72747254948803 41.518461452920675 59.44512431399258 0 0 -1
2055 3 10 0 41.29284346594026 44.28356945257061 34.957629040287976 0 0 0
677 1 1 0 41.76687784346614 36.29764606145232 32.00648996601485 0 0 1
1776 3 7 0 41.5354208385748 38.15294550618742 31.034522691022914 0 0 0
1775 3 10 0 42.39194168273868 38.677484628390474 31.08585952439979 0 0 0
1772 3 4 0 42.00228086900286 40.043117518656125 31.122061360686224 0 0 0
1770 3 8 0 43.85888220095447 40.3018590780229 32.217159248895925 0 0 0
1771 3 3 0 43.307267462915846 40.83436865733957 31.413737007607285 0 0 0
352 1 8 0 43.33896961095715 37.50513842597452 33.690795511595965 0 0 0
357 1 10 0 41.65791542203186 38.638222103124995 34.97817067155922 0 0 0
353 1 3 0 43.89856113723754 37.90522369801245 34.520460682647645 0 0 0
355 1 1 0 44.651612887492654 38.548095452150704 34.12827386408997 0 0 0
362 1 1 0 44.56893081642886 40.264031473434045 36.02532826357332 0 0 0
1765 3 4 0 43.164290366274344 42.21500150965162 31.927886349326414 0 0 0
360 1 3 0 43.50516939428147 40.05545634720622 35.71264672279538 0 0 0
354 1 4 0 42.98260601212218 38.61789401904157 35.546692101790725 0 0 0
1767 3 5 0 42.58166222992449 42.72569117190578 31.154986596159908 0 0 0
1092 2 1 0 46.55141594872145 39.50983003027268 32.921250876784086 0 0 0
1094 2 10 0 47.46537346080185 40.56691586234924 34.84487365315069 0 0 0
359 1 8 0 43.24650079532868 40.601297895352246 34.78190003874059 0 0 0
1766 3 1 0 44.86273218839791 43.095019793301695 31.011867364360068 0 0 0
1764 3 3 0 44.53839371498876 42.88729529226341 31.99389752734224 0 0 0
1095 2 7 0 47.95481860158524 39.929884946617385 35.430022962383866 0 0 0
356 1 5 0 43.04889672954249 38.147999957602686 36.5146569837844 0 0 0
1753 3 5 0 46.595554680950094 43.55191397859035 34.51228316002618 0 0 0
358 1 7 0 41.27648099976259 39.515507774802565 35.163281009271216 0 0 0
1082 2 8 0 46.115519883730364 40.270590534017806 30.927237142685147 0 0 0
1768 3 10 0 42.46195700318985 42.15202200822154 33.13097056535027 0 0 0
1774 3 5 0 41.2180600581929 40.08946247235941 31.866827384566783 0 0 0
1744 3 4 0 47.53172194732537 44.146896562021965 36.91597502477223 0 0 0
361 1 4 0 42.63600529341828 40.75813099020161 36.72763593159796 0 0 0
364 1 10 0 42.087024103339125 41.737401283515 35.8444638810787 0 0 0
365 1 7 0 42.53186242781534 42.55810508770356 35.99619134899966 0 0 0
363 1 5 0 41.81039858851559 40.21222838911763 37.15631084149537 0 0 0
1746 3 5 0 47.68350104518542 43.09608580256076 36.762034974875654 0 0 0
369 1 1 0 44.45744573164156 41.57637079542777 37.569204718080506 0 0 0
1079 2 5 0 46.53654372875295 37.644757921284025 31.129176098789596 0 0 0
1090 2 3 0 47.61629087540795 39.41786612430567 32.74734837316778 0 0 0
1093 2 5 0 48.05064723793411 41.41561614137212 33.12766479412301 0 0 0
1763 3 8 0 45.16667909444667 42.17055657235404 32.510092283562194 0 0 0
1759 3 1 0 44.386620393526314 43.08359533602734 34.65415707552919 0 0 0
1751 3 4 0 45.95044210865443 44.39485979528561 34.85765823106729 0 0 0
1769 3 7 0 42.35034389097195 41.20845465011919 33.371170320356164 0 0 0
1755 3 7 0 46.32106797217186 46.29297773664897 34.57232302899298 0 0 0
1754 3 10 0 46.577862763003665 45.523853659549395 34.10995461410919 0 0 0
404 1 1 0 51.37512114602883 37.54799735429628 34.296165983042606 0 0 0
411 1 1 0 51.06310471053972 35.61167317942865 31.918129829063574 0 0 0
409 1 3 0 51.869474533189845 36.31076046691476 32.066339648843844 0 0 0
386 1 7 0 48.99247090403042 40.20464430119513 37.02905495011636 0 0 0
407 1 7 0 54.17898500561154 35.91997227307828 32.73078290929409 0 0 0
1426 3 7 0 54.87185322784927 37.43345126942277 34.694888328039646 0 0 0
1089 2 8 0 47.97101873501658 38.484367672246925 33.14351339531298 0 0 0
1086 2 5 0 48.64729456632779 40.37047404293881 31.131650158915797 0 0 0
414 1 7 0 54.54589926549077 36.53053747937646 31.070465807436484 0 0 0
413 1 10 0 53.83477033490364 37.111311367973016 30.855102367276356 0 0 0
1084 2 4 0 48.03441456177031 39.54862194045955 31.243122424641232 0 0 0
1091 2 4 0 48.18300388112106 40.50638193059954 33.64204605213956 0 0 0
1102 2 7 0 50.03287068872859 43.08471095969613 33.13787566786262 0 0 0
401 1 8 0 52.455965616877215 36.66908856596225 35.435484824368004 0 0 0
1099 2 1 0 49.5726302086451 39.47355673151294 34.846120652940584 0 0 0
1097 2 3 0 49.573835249526375 40.126018672563596 33.995991672966866 0 0 0
1101 2 10 0 50.37487731247666 42.17540371366076 33.06071804198259 0 0 0
1100 2 5 0 49.6789242110842 42.07464504098838 35.00109364498627 0 0 0
1104 2 3 0 51.69146586486666 41.35151521449011 34.81884520884673 0 0 0
1098 2 4 0 50.27844391126543 41.48017204305025 34.27315094549549 0 0 0
1106 2 1 0 52.082781636798416 40.43419665059336 34.31911524984557 0 0 0
1103 2 8 0 52.393460909860586 42.14541421262513 34.44963323092145 0 0 0
1096 2 8 0 50.08278465833656 39.56909403116912 33.214510095668054 0 0 0
1105 2 4 0 51.64282059193631 41.30122056761246 36.30625305944863 0 0 0
408 1 8 0 51.284520148295925 37.22655995015107 32.06539056547531 0 0 0
1406 3 3 0 54.554155445199 40.51679236722445 58.85027461177936 0 0 -1
1108 2 10 0 51.68262353743173 42.63595122791792 36.70084771546331 0 0 0
1087 2 10 0 48.83760599487839 38.483348252336114 30.88073999410446 0 0 0
1109 2 7 0 52.06367640488101 42.68784033734054 37.549753946486284 0 0 0
1407 3 4 0 53.81974593771132 40.53345985994671 30.760798428273567 0 0 0
1410 3 5 0 53.303362345186585 39.60105126007641 30.852739364102824 0 0 0
1417 3 5 0 54.122517299740394 39.12210778931277 32.909258834094956 0 0 0
1412 3 7 0 52.40479235973713 41.62518545702594 31.473178202513353 0 0 0
1411 3 10 0 52.78104951461672 41.515920756039804 30.55377588994063 0 0 0
1413 3 8 0 54.39640193583541 41.73287666736165 32.418447601836405 0 0 0
1425 3 10 0 54.77882111529863 38.3299772993986 35.06003658117806 0 0 0
837 2 8 0 47.51699827433702 44.837020980817584 31.391094139719055 0 0 1
1747 3 10 0 48.64781420785571 44.8261159138155 36.26168876707927 0 0 0
2268 4 7 0 51.01572669965504 44.52973577816903 33.968972470443504 0 0 0
1113 2 1 0 53.233516237406675 39.752360997009745 36.269351102311504 0 0 0
1107 2 5 0 50.70942135147881 40.73322536196972 36.710005150425054 0 0 0
1111 2 3 0 52.871316864338105 40.597773384863416 36.94379849225063 0 0 0
416 1 3 0 51.78857005926679 36.59665248194076 59.119946452011106 0 0 -1
1088 2 7 0 49.118664520514734 38.09209243046773 31.70223875639122 0 0 0
1550 3 5 0 61.76986871878798 42.730974498209775 35.67718926470019 0 0 0
1408 3 1 0 53.82238936589167 40.041339973189785 58.026781585323626 0 0 -1
1414 3 3 0 54.745836298257416 40.875640761406984 31.89568056412907 0 0 0
1415 3 4 0 55.01567640420709 39.75231555662272 32.818638296497696 0 0 0
1432 3 10 0 58.574234226216724 38.13502499224611 36.21977240875543 0 0 0
1433 3 7 0 58.82588352602489 37.22300639363818 36.2527015230147 0 0 0
1416 3 1 0 55.70649948354141 41.14372167063215 31.450358873172974 0 0 0
1420 3 8 0 55.034978998025096 40.87737800014655 34.614117629227465 0 0 0
1548 3 4 0 60.88220672857727 43.06892984238651 36.17366482321553 0 0 0
1551 3 10 0 59.80635878135345 43.13399840485109 35.28407603695927 0 0 0
2820 6 9 0 60.297932712337335 38.303082327246095 32.72053860397785 -2 0 1
1419 3 7 0 55.77080315606809 38.95604494104938 31.217508800196565 0 0 0
1418 3 10 0 55.90370654536278 38.85126537516312 32.16505630776071 0 0 0
1423 3 1 0 56.71529748373281 40.75950361310892 33.855103389992635 0 0 0
1421 3 3 0 55.77871469513493 40.20767478668256 34.08834186153835 0 0 0
1422 3 4 0 56.010784830051726 39.011751588589945 34.99175301678047 0 0 0
1604 3 4 0 61.89306609510673 42.47419883632273 32.54796281075912 0 0 0
1606 3 5 0 61.14174583594284 42.4581954181738 33.33438604271158 0 0 0
1424 3 5 0 56.824688085461744 38.42361175401873 34.43876715426152 0 0 0
2819 6 9 0 60.26485586436227 39.34365651795255 33.384882477320915 -2 0 1
1614 3 10 0 60.166231248439615 44.68627366196484 32.61730289769324 0 0 0
1553 3 8 0 59.51531185700479 41.587981581224426 36.892387759263116 0 0 0
1615 3 7 0 59.49774578273257 44.78632767622694 31.908615663571407 0 0 0
1552 3 7 0 59.06710690624202 43.670685914871655 35.75750964809368 0 0 0
1428 3 3 0 56.537579151624435 39.53411940230264 36.326813816262366 0 0 0
1430 3 1 0 57.22383075721877 40.45336934419122 36.15174820143474 0 0 0
1608 3 7 0 60.52309126345026 41.794002194365774 31.559680927233178 0 0 0
1611 3 4 0 61.47305044606564 45.00048962436325 32.15263320444906 0 0 0
1399 2 4 0 58.19914193288835 37.186105563377076 57.69747022331764 0 0 -1
1607 3 10 0 61.447370737523286 41.95586678408036 31.346359831126282 0 0 0
4 1 1 0 57.61563893725029 42.84618292887044 57.75863191366631 -1 0 0
1559 3 7 0 60.41215702022432 39.743548310358264 36.32311695041931 0 0 0
1558 3 10 0 60.78445974085731 39.699563332174854 37.191789545084205 0 0 0
1401 2 5 0 58.559242071402316 37.89850854139111 56.99073271761685 0 0 -1
2063 3 7 0 36.933465257560165 46.713347734056576 35.34219791509631 0 0 0
1541 3 4 0 33.25942203663314 44.73671822015078 36.95126027530113 1 0 0
2062 3 10 0 37.7690903144391 47.10145709741217 35.05292558246945 0 0 0
2068 3 5 0 36.210879808732784 46.33451497993177 33.26590086377971 0 0 0
2064 3 8 0 38.816077329173545 45.66631520791814 32.152203565662006 0 0 0
2060 3 1 0 40.19353009504915 47.163548393495034 34.93295881240432 0 0 0
2059 3 4 0 38.45339068172432 46.161099027794954 34.180022129450045 0 0 0
2058 3 3 0 39.95524603179603 46.229824275064615 34.53670404498207 0 0 0
2067 3 1 0 38.78196124943536 47.36688645628557 32.275997631184715 0 0 0
2065 3 3 0 38.253426327557236 46.478363609854696 32.67524887326251 0 0 0
2066 3 4 0 36.733857220681145 46.3238575480053 32.305049102644446 0 0 0
2072 3 3 0 36.20919222369584 47.56937518522873 31.593109048672414 0 0 0
2071 3 8 0 36.254076265314545 48.42792481077074 32.242495918047254 0 0 0
1342 2 3 0 62.646028045020714 52.32247807856958 35.17156562949838 0 -1 0
2052 3 4 0 40.51530321956061 45.28840038915302 35.58830198940182 0 0 0
1336 2 4 0 33.96349734116664 51.885127806344855 36.40945973357205 1 -1 0
1973 3 8 0 39.049870743901806 52.05335635392394 34.858674571704924 0 0 0
1974 3 3 0 39.74154297453146 51.175470779175804 34.91825369464032 0 0 0
1976 3 1 0 40.77649095584897 51.618365539979806 34.82399059553191 0 0 0
1975 3 4 0 39.546547962502274 50.49044166370931 36.29761680826243 0 0 0
1977 3 5 0 38.6557411215913 49.79560237317436 36.306150308450114 0 0 0
1344 2 1 0 62.11475483327076 51.45091743536138 34.78338889761569 0 -1 0
1972 3 7 0 37.83387519229055 50.84217960133147 34.17633101745897 0 0 0
1971 3 10 0 38.1329322511591 50.3669308255356 33.38336484870559 0 0 0
1338 2 5 0 33.77145869043445 50.83873108821774 36.680424077107475 1 -1 0
1537 3 10 0 35.29980662686502 47.85877901656131 36.475536270421564 1 0 0
1968 3 4 0 39.5452410475489 50.249559047608145 33.718797283711275 0 0 0
1544 3 10 0 33.98213273203829 44.190324172392664 35.869198581233086 1 0 0
1536 3 5 0 35.644556825611296 45.87435213706741 36.79555742745912 1 0 0
2053 3 1 0 40.96948385854901 46.922215877530945 36.92369805442711 0 0 0
2054 3 5 0 39.6803532790656 44.90327328852333 36.15935210037251 0 0 0
1970 3 5 0 39.65663303046693 49.21887001235715 34.09004169726471 0 0 0
1616 3 8 0 33.58549401592595 46.27559811245276 32.83607061823134 1 0 0
1966 3 8 0 39.80902273947687 50.5532085200659 31.61069916677292 0 0 0
1967 3 3 0 40.46357588955118 50.58593804745929 32.546412958950555 0 0 0
1965 3 7 0 41.70993368801095 48.29148764658717 31.204336541283233 0 0 0
1626 3 1 0 62.64051300604691 48.13716207532013 34.41617078058105 0 0 0
1622 3 7 0 33.68385192532322 47.92878723704858 31.57804886632274 1 0 0
2088 3 1 0 36.653792800655104 51.36885810296115 30.37201360709875 0 0 0
2078 3 8 0 35.4170553143021 49.45285061390297 59.43716956173045 0 0 -1
1752 3 1 0 45.32289589677663 44.1494915902234 36.882402361536435 0 0 0
2057 3 8 0 40.612531525040424 46.09977135601022 33.6782767018501 0 0 0
2051 3 3 0 41.51740480088972 46.07074209761354 36.40473046981405 0 0 0
1758 3 4 0 44.56601294615505 44.20595930240646 32.73379193490056 0 0 0
1760 3 5 0 45.38520041832213 44.800912229855484 32.33049369778923 0 0 0
1750 3 3 0 46.18001210734697 44.63874870446073 36.34589607790051 0 0 0
2050 3 8 0 42.15701781836455 46.51721730770847 35.68057519206763 0 0 0
1979 3 7 0 41.35368907963966 50.255764471389895 36.74002457788284 0 0 0
1978 3 10 0 40.65055009121444 49.66902180660595 36.44217899849114 0 0 0
1757 3 3 0 44.55417223827666 44.11594753346153 34.34460031111888 0 0 0
1761 3 10 0 43.33644626681028 44.91533087518823 32.47622746879188 0 0 0
1749 3 8 0 46.0994114029297 45.745161838274754 36.50852518313472 0 0 0
1756 3 8 0 43.94748490099285 44.90040945079077 34.83227182637238 0 0 0
1762 3 7 0 42.646251130919 44.35917217230433 32.87919498934571 0 0 0
1964 3 10 0 41.29716510687461 48.42961883617533 32.029436750655464 0 0 0
1961 3 4 0 41.65346876996626 49.68166862981972 32.55342732435391 0 0 0
2226 4 7 0 45.621253800205544 49.453995931815946 35.61856511851264 0 0 0
2225 4 10 0 46.54443888552674 49.51774949151441 35.763379442689526 0 0 0
2047 3 5 0 43.25688401373969 44.857194905500435 37.047419514584085 0 0 0
1963 3 5 0 42.06707638628479 49.53477545012707 33.56522888521845 0 0 0