LAMMPS data file via write_data, version 23 Jun 2022, timestep = 1201938

3491 atoms
22 atom types
3601 bonds
21 bond types
6745 angles
39 angle types

29.021083341014165 61.36791665898926 xlo xhi
28.783582341014156 61.13041565898925 ylo yhi
28.84508434101416 61.191917658989254 zlo zhi

Masses

1 1.00794
2 1.00794
3 12.0107
4 12.0107
5 1.00794
6 1.00794
7 1.00794
8 1.00794
9 1.00794
10 15.9994
11 15.9994
12 15.9994
13 28.085501
14 12.0107
15 12.0107
16 1.00794
17 15.9994
18 15.9994
19 12.0107
20 12.0107
21 1.00794
22 15.9994

Pair Coeffs # lj/cut/omp

1 0.038 2.44997
2 0.038 2.44997
3 0.039 3.87541
4 0.039 3.87541
5 0.038 2.44997
6 0.038 2.44997
7 0.038 2.44997
8 0.038 2.44997
9 0.038 2.44997
10 0.228 2.85978
11 0.228 2.85978
12 0.228 2.85978
13 0.04 4.05343
14 0.148 3.61705
15 0.039 3.87541
16 0.038 2.44997
17 0.228 2.85978
18 0.228 2.85978
19 0.148 3.61705
20 0.148 3.61705
21 0.038 2.44997
22 0.228 2.85978

Bond Coeffs # harmonic/omp

1 340.618 1.105
2 340.618 1.105
3 322.716 1.526
4 340.618 1.105
5 340.618 1.105
6 340.618 1.105
7 384 1.42
8 540.634 0.96
9 540.634 0.96
10 222.4 1.382
11 540.634 0.96
12 392.8 1.6652
13 392.8 1.6652
14 283.092 1.52
15 340.618 1.105
16 615.322 1.23
17 322.716 1.526
18 340.618 1.105
19 273.2 1.425
20 540.634 0.96
21 384 1.42

Angle Coeffs # harmonic/omp

1 39.5 106.4
2 44.4 110
3 39.5 106.4
4 44.4 110
5 39.5 106.4
6 46.6 110.5
7 44.4 110
8 44.4 110
9 70 109.5
10 46.6 110.5
11 44.4 110
12 58.5 106
13 33.3 113.4
14 33.3 113.4
15 33.3 113.4
16 33.3 113.4
17 39.5 106.4
18 57 109.5
19 57 109.5
20 42.3 113.1
21 42.3 113.1
22 42.3 113.1
23 31.1 149.8
24 46.6 110.5
25 45 109.5
26 50 120
27 68 120
28 46.6 110.5
29 44.4 110
30 55 120
31 39.5 106.4
32 70 109.5
33 57 109.5
34 70 109.5
35 57 109.5
36 80 109.5
37 70 106
38 80 109.5
39 58.5 106

Atoms # full

747 2 3 0 32.46133609132705 33.82315191368812 29.575820941002963 0 0 0
65 1 9 0 31.45069033889182 30.942956455038452 32.8443842395489 0 0 0
66 1 3 0 30.785110207908613 30.81878027591947 33.757701725559556 0 0 0
60 1 4 0 30.15899904069827 32.13784947491826 34.100656768637506 0 0 0
63 1 11 0 31.287753898529317 33.01864831590309 34.26039879221824 0 0 0
753 2 9 0 32.10930414239946 34.50144511797045 32.24702187647511 0 0 0
68 1 1 0 30.035087978692225 30.139982739651124 33.474134569514376 0 0 0
744 2 11 0 33.67770757361599 32.425463810120235 31.067396192992742 0 0 0
67 1 4 0 31.643814850298753 30.335183044904724 34.944849134947006 0 0 0
745 2 8 0 33.63898767519854 31.774923064006448 31.661255349718086 0 0 0
741 2 4 0 32.4581753279533 32.48510097298437 30.287005163972314 0 0 0
75 1 1 0 33.34142274707445 31.295480189832837 34.10964117759139 0 0 0
743 2 6 0 31.662166435370953 32.51406590816817 31.000567093580177 0 0 0
58 1 9 0 29.945319384960392 33.18908151758315 32.220465717526 0 0 0
59 1 3 0 29.330631494361022 32.689032073926086 32.91213465303892 0 0 0
742 2 1 0 32.250796686944206 30.284150474546678 30.109657685312094 0 0 0
73 1 3 0 33.1842329115869 30.36957715231749 34.66335527830076 0 0 0
748 2 4 0 32.83299205007833 35.0974287969747 30.343862514846247 0 0 0
754 2 3 0 32.04355754597635 35.36604235421598 31.621212695216027 0 0 0
756 2 1 0 30.978312969913997 35.34353570130489 31.394764808415918 0 0 0
64 1 8 0 30.98791099353805 33.63506155448289 34.941845733334844 0 0 0
733 2 3 0 30.40466866841237 29.876989414205244 60.72121793976373 0 0 -1
760 2 9 0 34.088432327643645 35.68091253273557 33.278223192709866 0 0 0
82 1 1 0 34.92300994218663 30.658037566817505 32.93287731992874 0 0 0
751 2 11 0 34.20250547447338 35.27679945413809 30.48987529033355 0 0 0
752 2 8 0 34.516443319809326 34.69014058630442 31.17783959133036 0 0 0
57 1 8 0 60.9896593397877 35.14290401979935 34.647527081906645 -1 0 0
735 2 1 0 31.060201388497063 28.960346853776073 60.874036705487754 0 0 -1
80 1 3 0 34.831816921587034 29.584845933621686 32.92803465795163 0 0 0
83 1 6 0 34.35995495795976 29.91635408574375 30.897020867966937 0 0 0
74 1 4 0 33.58912583066297 29.153901832475526 33.73125559915692 0 0 0
1134 2 1 0 35.88026374050527 32.96905915709023 34.94050390677072 0 0 0
90 1 6 0 37.369401607579775 30.264347182695445 32.01384019300135 0 0 0
1141 2 1 0 37.096865154947366 31.56272174315011 33.93700793430747 0 0 0
1139 2 3 0 38.06703996630037 31.808390574056183 34.52717726222216 0 0 0
1138 2 9 0 38.66523913161886 32.25588950544447 33.70575521173429 0 0 0
101 1 3 0 41.04417030335969 30.00127137534232 29.960426544111417 0 0 0
95 1 4 0 39.59837094541813 30.473799572624852 30.137204204752635 0 0 0
2879 5 16 0 40.839058421692506 32.606696863492374 34.32351763786612 1 -1 1
99 1 8 0 39.066642192269825 32.23457648149695 30.674815891090624 0 0 0
98 1 11 0 39.52854633497488 31.52281128808484 31.124800201067096 0 0 0
1144 2 8 0 40.048327024340324 30.333111089755217 33.59432059172381 0 0 0
1143 2 11 0 39.22075622538395 29.90153936904122 33.77929182909025 0 0 0
1146 2 3 0 37.87860994529843 29.289082273946587 35.390615124553385 0 0 0
1140 2 4 0 38.741999330083 30.453341824966195 35.00587032309983 0 0 0
1145 2 9 0 37.84789106009531 61.04986216048222 34.429749048742366 0 -1 0
103 1 1 0 41.44255422942315 29.54255573593257 30.953815762567388 0 0 0
107 1 9 0 41.94852525617077 32.13122511498749 31.523117534479116 0 0 0
1132 2 3 0 36.54294119597517 33.652811222936165 35.4582519128825 0 0 0
2874 5 15 0 41.1814331549099 33.35478297589664 35.12861125002436 1 -1 1
1131 2 9 0 36.74101365232384 34.49502219822914 34.83118475305973 0 0 0
1148 2 1 0 36.83048951008686 29.61460877377456 35.52433504357547 0 0 0
102 1 4 0 41.992194964762135 31.127568475982514 29.516083207171324 0 0 0
100 1 9 0 41.102674332752855 29.22853652550991 29.156441494317566 0 0 0
1133 2 4 0 37.85438194975495 32.84900064060406 35.56049787724304 0 0 0
88 1 4 0 37.19233966746096 29.931658229644906 31.015829646191996 0 0 0
94 1 3 0 38.533857990809764 29.40564714712273 30.479526213594227 0 0 0
91 1 11 0 36.6159652001022 30.939420704109548 30.2068783005652 0 0 0
1142 2 6 0 39.5092616652947 30.712880651397718 35.658792582007116 0 0 0
1136 2 18 0 38.88471131586508 33.84109396347395 35.43589730059334 0 0 0
2871 5 15 0 41.510152610608294 34.67278302907243 34.463449438466384 1 -1 1
2875 5 16 0 40.76017483574098 35.420066772513415 34.421070347435354 1 -1 1
79 1 9 0 35.697371084334215 29.098098492548594 33.43867612908582 0 0 0
104 1 6 0 41.47585478014922 31.930122716437943 61.12625719246232 0 0 -1
117 1 1 0 42.6817320689403 31.237620956309225 33.27569846680314 0 0 0
2873 5 16 0 41.153070362147716 34.21236199219294 32.323486884365764 1 -1 1
108 1 3 0 42.70988369232089 31.895012391284997 30.71916244641644 0 0 0
114 1 9 0 43.156650582305446 29.767188236570608 32.80982151788469 0 0 0
2870 5 15 0 41.95898408832878 34.51879159349185 32.99343030507916 1 -1 1
2872 5 16 0 42.69130364417225 33.65965123314424 33.01055169175364 1 -1 1
115 1 3 0 43.55671706845938 30.762761849904994 32.86701895043479 0 0 0
109 1 4 0 43.9026990495863 31.24470770851525 31.461827370397682 0 0 0
111 1 6 0 44.25547324684319 30.346359538164958 30.874005571312725 0 0 0
112 1 18 0 44.930130040439515 32.23157166156995 31.442471122614133 0 0 0
119 1 18 0 45.83811799296828 30.57458954205061 32.81944000677725 0 0 0
2899 7 20 0 46.18045645496791 31.759647851607227 32.0382529777774 0 1 1
2911 7 16 0 46.621116260537946 32.507040980277566 32.78677290558155 0 1 1
118 1 6 0 44.907293866478085 32.01688438309193 34.00782759364125 0 0 0
116 1 4 0 44.821918039452605 30.94831672168292 33.710374689161696 0 0 0
2900 7 15 0 47.030380780658746 31.315753459878696 30.815557799700617 0 1 1
2902 7 16 0 46.620157204939446 30.341962593734674 30.374312212636145 0 1 1
122 1 3 0 44.86545210400541 29.97463294652509 34.89164911723579 0 0 0
2906 7 16 0 46.88524106252273 33.237771762497424 29.929238475180156 0 1 1
2901 7 15 0 47.163394552736264 32.27918575225368 29.622294722875946 0 1 1
110 1 1 0 43.23696505430358 32.79849735071323 30.356874463589122 0 0 0
2903 7 16 0 47.962162734898094 30.88331762064548 31.236033715997422 0 1 1
124 1 1 0 44.21493752044144 29.046609653112768 34.661358969044194 0 0 0
2905 7 16 0 48.22307822180748 32.47106774464236 29.237255897148497 0 1 1
2286 4 1 0 46.67687767345519 34.89911891922923 34.61544426017213 0 0 0
121 1 9 0 45.88413465673699 29.526964797034097 34.86552487033871 0 0 0
4 1 1 0 48.69730303922194 32.24185092081382 34.85985983746423 -1 0 0
2171 4 9 0 50.33907773661595 32.972850432144874 30.875341515556826 0 0 0
2175 4 6 0 52.12484086013211 33.10411005394823 32.29158377379821 0 0 0
2172 4 3 0 50.58246050849267 34.00958476243966 31.174149079165236 0 0 0
2173 4 4 0 52.03878591875049 33.932067673394656 31.586195089195307 0 0 0
2176 4 11 0 52.89101720986015 33.69041225306928 30.488077721517644 0 0 0
2177 4 8 0 52.72468013945749 32.827991620390755 30.043220280685915 0 0 0
2166 4 4 0 50.31058648722305 34.85091430197931 29.942615771216968 0 0 0
706 2 1 0 53.38790513845197 30.13162482598125 31.69474918704363 -1 0 0
2182 4 6 0 54.38367099121021 34.37481965175707 32.697527662216565 0 0 0
2174 4 1 0 49.931207708457826 34.22744539564905 32.02917188718204 0 0 0
2164 4 9 0 48.33936201310689 35.22818472551719 30.61324724590312 0 0 0
2179 4 3 0 52.496589653691956 35.26553398566991 32.174607076536155 0 0 0
704 2 3 0 53.91401288791766 30.357242461825514 32.615478916678676 -1 0 0
703 2 9 0 53.8447135875476 31.480138139709368 32.82103104200158 -1 0 0
707 2 2 0 53.32341012387687 29.89427665962081 33.414400834796055 -1 0 0
5 1 2 0 49.87729766268207 30.964459221832143 34.44368452890221 -1 0 0
2168 4 6 0 51.20849343546455 35.473891081837934 29.683311820376517 0 0 0
2165 4 3 0 49.22317078592315 35.792747221278354 30.289672883029983 0 0 0
2184 4 8 0 53.97451145867363 34.61811104146777 34.94602334872582 0 0 0
2183 4 11 0 53.231253616881645 34.90103792691177 34.400423711964216 0 0 0
2 1 3 0 49.40557062992684 31.50532829390907 35.25338947048449 -1 0 0
8 1 8 0 52.30423277204104 31.9788804815057 35.679022063376884 -1 0 0
7 1 11 0 51.642536912450105 31.462609468792852 36.102826326170586 -1 0 0
729 2 6 0 29.699620089213187 30.75026517109003 30.246220159244867 0 0 0
727 2 4 0 29.387543415504553 29.977837027699184 29.551225895291356 0 0 0
731 2 8 0 29.344935910080686 29.004552330871537 31.26889602551014 0 0 0
730 2 11 0 29.36804196138629 61.11478803281402 30.311633134344838 0 -1 0
710 2 8 0 55.80274983300549 29.01606470104709 34.20180214341799 -1 0 0
61 1 1 0 61.12059532314032 31.848602407659648 32.427493151821814 -1 0 0
55 1 6 0 60.56145706495191 34.599459365767835 32.721726849133766 -1 0 0
56 1 11 0 61.01352078788683 34.171201708446254 34.671031844663105 -1 0 0
53 1 4 0 60.63695004952075 33.70343133182818 33.40700282096021 -1 0 0
709 2 11 0 55.881774924227805 29.86779020872068 33.77572846022642 -1 0 0
711 2 9 0 56.691614925260936 31.586458966156066 32.34268299017887 -1 0 0
705 2 4 0 55.36984519586454 29.888891623603527 32.49038340539674 -1 0 0
726 2 3 0 60.281260363027464 30.125851787856654 29.093256595297486 -1 0 0
712 2 3 0 56.29816285105858 30.812885326949292 31.64282720829099 -1 0 0
3157 1 12 0 56.095366360914205 34.72696715578681 29.394814544741628 0 0 1
715 2 6 0 58.30745183454219 29.840285105161954 31.552635882131412 -1 0 0
713 2 4 0 57.46694851504289 30.164155792596397 30.9037086592759 -1 0 0
719 2 3 0 58.08350034093853 31.057964874251773 29.80277392100095 -1 0 0
47 1 1 0 56.77546483406591 32.30114344447338 34.22054406067093 -1 0 0
720 2 4 0 59.607750488425815 31.16977503823729 29.870804705234935 -1 0 0
722 2 6 0 59.9964824401172 31.20801429970103 30.88745173640405 -1 0 0
52 1 3 0 59.29829597055725 33.050954857359066 33.370860452656004 -1 0 0
46 1 4 0 58.18617736533837 33.961632858825936 33.79661961177858 -1 0 0
54 1 1 0 59.24869327969305 32.16181553214522 34.02259025227879 -1 0 0
51 1 9 0 59.001309295838624 32.77265718681725 32.33922308062042 -1 0 0
3479 1 5 0 56.58028331900961 33.99972287975299 29.06808670172112 0 0 1
44 1 9 0 56.06601664173665 33.805038734371365 34.48012977539078 -1 0 0
45 1 3 0 57.023749846105346 33.302128039310816 34.5561359796931 -1 0 0
714 2 1 0 55.698092225063746 31.325405283808838 30.927779043278992 -1 0 0
723 2 11 0 59.95564387781525 32.476685726502545 29.320281381406375 -1 0 0
718 2 9 0 57.68838333652926 32.027254811086976 29.718337625317364 -1 0 0
3056 17 16 0 59.304060826430955 29.590803775374333 34.52262984722577 -1 0 0
50 1 8 0 56.821363539851674 34.072988431168845 32.32660014206028 -1 0 0
48 1 6 0 58.607441235061714 34.73886914112451 34.410536447517494 -1 0 0
49 1 11 0 57.619660475362906 34.593315102700416 32.59235318214607 -1 0 0
728 2 1 0 59.80561949161309 29.190575291144796 29.25906897269189 -1 0 0
716 2 11 0 56.9012810236198 29.048846797906574 30.32017169023901 -1 0 0
750 2 6 0 32.44289298998155 35.90809890458674 29.647963484312008 0 0 0
763 2 1 0 33.16083823570869 36.66752597414086 34.3539195962124 0 0 0
761 2 3 0 33.51056750020796 36.64322247338944 33.33129110998401 0 0 0
755 2 4 0 32.2751065385229 36.60469733375404 32.454176279963285 0 0 0
762 2 4 0 34.616933256390666 37.683215844552336 33.026831688116474 0 0 0
757 2 6 0 32.37022577851735 37.422989255488595 31.724814522858708 0 0 0
758 2 18 0 31.140136568087588 36.789252204349886 33.26889861422095 0 0 0
3108 20 16 0 30.656071548186553 38.713638176783405 32.49631162752577 1 0 0
3102 20 20 0 30.79995873826345 38.165875659129824 33.50048774288953 1 0 0
772 2 18 0 31.796526116903962 38.820934717900016 34.308730781049036 0 0 0
769 2 4 0 32.79019601917437 39.577437246415855 33.62913163666621 0 0 0
771 2 6 0 32.48322642203112 39.86170014232318 32.591115013657856 0 0 0
764 2 6 0 34.71124107649895 38.01609551023704 31.93457558770527 0 0 0
768 2 3 0 34.167493626628186 38.9027353704562 33.88237279194553 0 0 0
770 2 1 0 34.28537643875931 38.54878007647723 34.87815163923832 0 0 0
3099 20 15 0 29.504814021696554 38.16940833948246 34.26028989641975 1 0 0
775 2 3 0 32.77714087937191 40.96417349601835 34.30557325097406 0 0 0
3100 20 16 0 29.722973472976776 40.34373199171651 34.23949374382333 1 0 0
774 2 9 0 31.893550518750654 41.52953490148231 33.963086705887996 0 0 0
777 2 1 0 33.645434326536616 41.52183930462099 33.849228752349056 0 0 0
767 2 9 0 35.021899581324114 39.643072267950224 33.6754842259503 0 0 0
3104 20 16 0 29.560869800815205 37.86231230074839 35.32166461317858 1 0 0
3522 1 5 0 30.223173968886552 40.634301950769036 31.082051244987706 1 0 1
3497 1 5 0 31.793207285945634 37.835302061900116 29.320293576902586 1 0 1
2118 4 1 0 35.749522519849975 42.22655616387118 28.95117673691391 0 0 0
2120 4 11 0 34.49253845048989 40.4823095088653 30.264360244046248 0 0 0
3499 1 5 0 60.5926968039948 37.505282831073785 31.240854913469857 0 0 1
2115 4 9 0 37.42778762288548 41.62827876306724 29.136768096882303 0 0 0
2135 4 8 0 38.8851604807289 35.23402276571395 31.86003639017291 0 0 0
2116 4 3 0 36.44290910589267 41.822420347861076 29.699960745091346 0 0 0
2134 4 11 0 38.90399663192208 35.31688577537656 30.91405651492334 0 0 0
765 2 11 0 35.940756022510854 37.261401135703196 33.43244898880246 0 0 0
766 2 8 0 35.83415347474616 37.07038675318455 34.366634871973226 0 0 0
175 1 11 0 39.66567698576814 39.92955512363118 32.682431459127656 0 0 0
172 1 4 0 40.689213016658435 39.91980969963913 33.6280985958744 0 0 0
170 1 9 0 40.310571878894926 37.74482904073375 34.11944817340937 0 0 0
2133 4 6 0 39.30363099880296 37.16641456249019 31.568000020264183 0 0 0
171 1 3 0 40.66726044433874 38.69575520193454 34.61809721105456 0 0 0
176 1 8 0 39.50439081222962 40.83444346909941 32.468711610336804 0 0 0
2117 4 4 0 35.914689969609356 40.54645767093133 30.40538637922001 0 0 0
2126 4 6 0 37.551784774365586 38.79742160431868 31.457472448410293 0 0 0
2137 4 3 0 40.37880561933886 36.81629040884643 29.724037289184267 0 0 0
2131 4 4 0 39.10178679599442 36.6703006362794 30.64282693448423 0 0 0
2130 4 3 0 37.82742936641447 37.13387939917532 30.04488695158716 0 0 0
2132 4 1 0 36.97684506353994 36.46244741026174 30.34831164537387 0 0 0
2124 4 4 0 37.63736354525372 38.69044769494022 30.387966930058802 0 0 0
2123 4 3 0 36.38977984915128 39.23009499088144 29.675360122481298 0 0 0
169 1 8 0 37.70238102648247 38.95840174453946 35.6876839839934 0 0 0
168 1 11 0 38.39261252711979 39.394693321287235 35.19506852742456 0 0 0
2125 4 1 0 35.51250094440273 38.56333624377479 29.756998626737992 0 0 0
2122 4 9 0 36.61589684878616 39.34575531163821 60.963396590403946 0 0 -1
2141 4 18 0 41.60231067764954 36.49493299911213 31.827153711162058 0 0 0
174 1 6 0 40.707807518060385 40.73973348083367 34.295635609498405 0 0 0
165 1 4 0 39.64899394312208 38.950604754738336 35.70463489319201 0 0 0
427 1 11 0 43.26708890561134 41.19578460623379 29.402723313174647 0 0 1
2121 4 8 0 34.21723659397708 40.71590007238838 31.155598491337976 0 0 0
794 2 8 0 37.38889205374971 41.807567536459956 33.635822678972445 0 0 0
177 1 9 0 41.80227875076203 40.405693521920995 31.83022994103472 0 0 0
2876 5 16 0 42.31130906024577 35.12360298185572 35.09556120834321 1 -1 1
2119 4 6 0 36.157862916981934 40.44308030953302 31.528024027092005 0 0 0
2127 4 11 0 38.790323362218544 39.391900096361404 30.00216414602579 0 0 0
2128 4 8 0 38.71708823122935 39.53219347122463 29.06467324855387 0 0 0
428 1 8 0 43.922143358645314 41.27457627079146 30.087529957681106 0 0 1
2153 4 1 0 45.73211087197886 34.96458948526872 30.12298203142823 0 0 0
2140 4 6 0 41.70315692937837 35.22546483459171 30.011497570477097 0 0 0
178 1 3 0 42.01810336175821 39.94706330183013 32.79840168978735 0 0 0
2148 4 18 0 43.6248967798051 35.245455788406346 31.328285774287227 0 0 0
2283 4 9 0 45.20690493783802 35.65246604924927 33.92953922852213 0 0 0
180 1 1 0 42.478550273424176 39.01090664845131 32.74723471494966 0 0 0
2138 4 4 0 41.65727894772386 36.28766048168285 30.379503886393746 0 0 0
2151 4 3 0 45.262061306419106 35.81716240154143 29.66321353278639 0 0 0
179 1 4 0 43.06271753838863 40.76897487016168 33.58639897683555 0 0 0
2154 4 6 0 46.73157542642579 37.13755056163154 30.36128600743083 0 0 0
2869 5 20 0 42.6869447435528 35.75571416797882 32.371003876918536 1 -1 1
2881 5 16 0 43.27078962658352 36.25402134480419 33.12105791527096 1 -1 1
185 1 3 0 44.47613214191551 40.467496220146636 33.05352327032538 0 0 0
2147 4 6 0 44.533982931817064 37.17481698469458 31.104543776114816 0 0 0
2145 4 4 0 44.106541994927746 36.34422028433871 30.516264368713124 0 0 0
184 1 9 0 44.43405756683154 40.185157425130775 32.013724044890566 0 0 0
187 1 1 0 44.89818176095336 39.58861951339786 33.62045043062166 0 0 0
2144 4 3 0 42.89639964104456 36.95792569347704 29.780290162452367 0 0 0
2143 4 9 0 42.751427775763894 38.06608106753022 29.941720987521876 0 0 0
2152 4 4 0 46.31037136978879 36.915443889537585 29.406763445881502 0 0 0
2288 4 11 0 46.933348303432524 37.16859444824455 33.03024065771068 0 0 0
2146 4 1 0 42.94040907750612 36.73764975634155 61.01836082304004 0 0 -1
194 1 1 0 46.18504812965246 41.08604691162549 35.01514728271332 0 0 0
2156 4 8 0 46.21993183587087 38.7631305488356 29.150113030044565 0 0 0
2155 4 11 0 45.678272216380975 38.07149349785685 61.172250359599744 0 0 -1
190 1 8 0 46.37540608301931 41.94600474719723 31.57366506490914 0 0 0
2285 4 4 0 46.87566241737396 36.98410035993351 34.442884849506655 0 0 0
2284 4 3 0 45.976190231899096 35.77751656909563 34.72001321224978 0 0 0
2294 4 6 0 48.52879265044598 38.798511059298 34.415690012370895 0 0 0
2291 4 3 0 48.34388469182599 36.66044941633194 34.762705768063185 0 0 0
2290 4 9 0 48.7745262951759 35.8910011865434 34.02974639628537 0 0 0
181 1 6 0 43.01011178504088 40.54127303212242 34.65014062901788 0 0 0
2180 4 4 0 53.74014205503386 35.15878685341829 33.09550084269949 0 0 0
2178 4 9 0 51.78204576215196 35.72982092413965 32.86918564061575 0 0 0
2167 4 1 0 49.52284572164619 36.44856650767397 31.075032870203266 0 0 0
2159 4 4 0 48.88184753153931 36.6530856050864 29.045810772243847 0 0 0
2181 4 1 0 52.613687379097755 36.00874876224031 31.326940380521545 0 0 0
3450 1 10 0 52.20397227027813 40.050518238262825 30.653178471664337 0 0 1
3520 1 5 0 52.29494379918136 39.277528172452456 31.16596854086328 0 0 1
3429 1 13 0 53.396368405141345 39.97826256860097 29.517121974186278 0 0 1
2162 4 11 0 48.87875072041807 38.041097644209984 29.523259760667766 0 0 0
3265 1 12 0 54.58115765597232 38.95957164372857 30.16112128454702 0 0 1
2296 4 8 0 49.64273569697972 38.68874708584304 32.93733626395791 0 0 0
2185 4 9 0 53.56893316136491 37.32107400674695 33.084225226265325 0 0 0
2292 4 4 0 49.15295131638125 37.91176088361777 34.56039092821148 0 0 0
2295 4 11 0 49.74424089598366 37.806459936324636 33.29812795317435 0 0 0
2302 4 11 0 51.853060911457206 39.570906056555216 34.347620044800976 0 0 0
2303 4 8 0 52.14050173482566 38.76614964664411 33.939553894101564 0 0 0
3432 1 12 0 54.085318058692124 41.50103841740963 29.458097419777147 0 0 1
2163 4 8 0 49.81375623063272 38.25612578903043 29.46760094630143 0 0 0
2186 4 3 0 54.32560686710471 36.5656945825652 33.036640167640755 0 0 0
3495 1 5 0 55.19053695176007 39.486241017380124 30.71475203401272 0 0 1
2293 4 1 0 48.424794129161086 36.28339795950763 35.836100369950834 0 0 0
2188 4 1 0 54.93351555225982 36.76297918011282 32.08338528398882 0 0 0
2299 4 4 0 51.04415310748957 39.41886562458069 35.478012229090645 0 0 0
2298 4 3 0 50.24413243433067 38.081516621454426 35.607567862454054 0 0 0
2301 4 6 0 51.664780766360195 39.39462234330421 36.450907756345984 0 0 0
2297 4 9 0 50.913507726551956 37.193122117088606 35.50047086780541 0 0 0
2300 4 1 0 49.842007179425195 37.84998238140392 36.65325518025953 0 0 0
2318 4 9 0 53.854468254358615 41.29129649697512 35.302041817930686 0 0 0
2305 4 3 0 50.14912593650174 40.66792898627598 35.53517144215645 0 0 0
3452 1 10 0 29.25643785821922 40.7001805868167 30.95607210220537 1 0 1
3096 20 15 0 61.26976688889215 39.57299311158269 34.081951382811376 0 0 0
3103 20 16 0 61.139357129695284 37.48061512902132 33.72000896340954 0 0 0
3481 1 5 0 59.058669763464195 35.719038693575044 30.337233463470813 0 0 1
3289 1 12 0 60.261347336430354 38.38243451091633 31.22523397975324 0 0 1
3286 1 13 0 60.87058603256463 39.472588624308116 30.178596869143767 0 0 1
2192 4 9 0 56.30755247009878 38.36414096994962 33.072664000303064 0 0 0
3295 1 12 0 57.33539659581933 40.81447387413627 30.8630857676792 0 0 1
3101 20 16 0 60.790588430957335 39.76679104098872 33.11155237916395 0 0 0
2195 4 1 0 57.16791525164249 36.91086667785817 33.11821883190475 0 0 0
2197 4 18 0 58.389941255905825 38.95944313384698 34.08493248071275 0 0 0
2325 4 9 0 56.28822056819145 40.461888143006554 33.608521326556385 0 0 0
3177 1 12 0 58.84419519471072 36.212519599185086 29.55767429988726 0 0 1
3325 1 13 0 57.970348182714545 40.487675821722874 29.38740777785034 0 0 1
2193 4 3 0 56.55614865996613 37.58472260623167 33.75343222126595 0 0 0
2330 4 18 0 58.81295245437022 41.164719392530294 33.885962627255644 0 0 0
3094 20 20 0 58.83927871754857 40.10614778568345 34.801753767064454 0 0 0
3292 1 12 0 59.576376895905184 40.10751276130996 29.389695110357206 0 0 1
3095 20 15 0 60.31778836850044 39.861208690367434 35.24478277644399 0 0 0
2187 4 4 0 55.27690976242559 36.77000513433531 34.20592585634862 0 0 0
3500 1 5 0 57.688073604642874 40.28372566701636 31.55658666872698 0 0 1
2326 4 3 0 56.32006600544141 41.37242252532808 34.234897960720545 0 0 0
3098 20 16 0 60.61303823369232 40.8066228452698 35.77048831528698 0 0 0
2194 4 4 0 57.37051398539282 38.21093785646532 34.835309824873356 0 0 0
1996 3 4 0 31.17864511348262 47.68408905390005 31.882591840622208 0 0 0
1999 3 11 0 32.263623853005 46.8413689842777 32.22202298448377 0 0 0
1998 3 6 0 30.390385200430156 47.157811715878985 31.289752725860968 0 0 0
2006 3 11 0 31.090618946861834 47.80657757108459 28.87101291512458 0 0 0
2000 3 8 0 32.52285734367945 47.027552723660925 33.08469382104429 0 0 0
3510 1 5 0 29.361559343351118 44.16817604617298 32.32782145463259 1 0 1
2111 4 2 0 34.500323491186094 43.157441982113085 30.603741739551786 0 0 0
2110 4 1 0 35.47611180486577 44.58714099946324 31.485466964805333 0 0 0
2108 4 3 0 35.33612254963397 43.418786683333494 31.239238114500164 0 0 0
267 1 8 0 29.34897069766282 43.57704598203179 35.669750721967986 0 0 0
2107 4 9 0 35.004544383602465 42.89856787922725 32.16109873536984 0 0 0
3374 1 12 0 29.55516964895782 43.9653270401712 31.386185618169097 1 0 1
2005 3 6 0 32.88651669299488 47.65857201736806 29.661529216548246 0 0 0
1994 3 9 0 30.608096575138347 47.51544854176119 33.96692417709344 0 0 0
1995 3 3 0 30.510492271038554 48.247528466332696 33.2025041715957 0 0 0
792 2 6 0 36.02197821644442 43.23517144882925 33.95839497418406 0 0 0
265 1 6 0 30.047060777518368 45.89995169351819 35.52824801853249 0 0 0
266 1 11 0 30.260601920486945 43.800851355308424 35.559444738796515 0 0 0
3523 1 5 0 31.819021417167047 42.53748223058642 30.15518752042967 1 0 1
793 2 11 0 37.68189967418398 42.05752298412281 34.50151767236837 0 0 0
2113 4 11 0 37.44079412689422 43.90656166798803 30.224204000456446 0 0 0
2109 4 4 0 36.64463629546215 42.89764446476546 30.721789255810457 0 0 0
1586 3 11 0 35.50919209146191 47.12887716180229 34.34905827024366 0 0 0
2112 4 6 0 37.101976756367826 42.454806030222805 31.54659417940596 0 0 0
1588 3 9 0 36.74412469663955 46.37354229515577 32.3136508603484 0 0 0
801 2 8 0 39.36736557312569 45.1005416105222 32.99136291111996 0 0 0
800 2 11 0 39.64636248201149 44.24757352456429 33.27219337459981 0 0 0
1598 3 1 0 38.68777789906573 47.08103694987021 30.535107748985126 0 0 0
798 2 1 0 37.351010094879975 45.262492595569135 34.07203032350391 0 0 0
805 2 1 0 40.97901331410618 45.56544256054441 34.66806100694776 0 0 0
1589 3 3 0 36.833326979857446 47.4500880795714 32.278660026471165 0 0 0
434 1 11 0 40.547167523952304 43.278847263737276 29.933807267912233 0 0 1
435 1 8 0 40.54914450308182 42.28667371761465 30.01889692172137 0 0 1
1591 3 1 0 37.77398310011959 47.75704051305775 32.79989417581724 0 0 0
797 2 4 0 39.25803848650523 44.218674617065695 34.61167908026192 0 0 0
799 2 6 0 39.613970090120176 43.270905651011795 35.07427895246684 0 0 0
796 2 3 0 37.728592267526324 44.45926003897548 34.76136139569756 0 0 0
790 2 4 0 36.82743787694418 43.17704255407533 34.679901804224386 0 0 0
2114 4 8 0 38.25162380576751 44.012421910989275 30.70311036111368 0 0 0
1593 3 11 0 35.89615640263603 47.358762387314485 30.057827598634226 0 0 0
1596 3 3 0 38.224869438753245 47.99458599305001 30.20401090435131 0 0 0
1590 3 4 0 36.85521133430429 48.05541910825235 30.833428663760966 0 0 0
1594 3 8 0 35.01840923525282 47.63177917313788 30.24132824458908 0 0 0
803 2 3 0 40.10653726015718 45.30322278958687 35.283988626118656 0 0 0
802 2 9 0 39.549619306059505 46.193057360796914 35.304938173942425 0 0 0
431 1 4 0 41.840041964071226 43.663035210899125 29.62495504559337 0 0 1
436 1 9 0 41.23605391143642 45.69155819983939 30.21191508699288 0 0 1
437 1 3 0 41.948170554654794 45.16066090108805 29.53692187964269 0 0 1
433 1 6 0 42.44108041898648 43.382974150767915 30.47181939071579 0 0 1
1595 3 9 0 38.191250380545334 47.87035690278056 29.076880668639685 0 0 0
439 1 1 0 41.65460998933884 45.57441200281862 60.84328308356861 0 0 0
191 1 9 0 47.290547663219414 42.00712077293375 34.051752497466985 0 0 0
189 1 11 0 46.45943322632185 41.18600592601344 32.14390520632633 0 0 0
186 1 4 0 45.51283180781347 41.59262286926784 33.0417842644993 0 0 0
192 1 3 0 46.26943868075188 41.915790322428265 34.338046750323954 0 0 0
182 1 11 0 42.66062851845798 42.14952739028636 33.39868673169541 0 0 0
183 1 8 0 42.47746380211472 42.204996305067496 32.49810890170513 0 0 0
188 1 6 0 45.095815336533164 42.509207634102665 32.65879461435441 0 0 0
441 1 11 0 43.334225408593596 45.94360929624147 31.27182584164318 0 0 1
438 1 4 0 43.309650257373974 45.643878429136734 29.908785780936647 0 0 1
442 1 8 0 43.99843099775576 45.353400288638554 31.72777619205612 0 0 1
2097 3 11 0 47.152077729153675 46.028348675977256 32.9287437733805 0 0 0
443 1 9 0 44.2800215277689 47.56997957971782 29.71555444977468 0 0 1
195 1 6 0 45.40328271965623 43.95400081019815 34.340030365521116 0 0 0
1630 3 9 0 42.918217092892846 47.66318551412857 33.2272167544496 0 0 0
426 1 6 0 44.17408728458678 42.84301027712894 60.87683529715841 0 0 0
1635 3 11 0 44.15789823851456 46.326908759597046 34.62952186541527 0 0 0
1636 3 8 0 43.291246752540694 45.99106507667176 34.874995284782194 0 0 0
444 1 3 0 43.754152755682554 46.87054167112588 29.10580326728507 0 0 1
2103 3 6 0 47.69001203012414 43.473453317440246 31.483331349394966 0 0 0
2098 3 8 0 47.68111270413718 45.33560520262226 33.25701713616403 0 0 0
1632 3 4 0 44.194742533353605 47.68937435662026 34.97064147868927 0 0 0
2094 3 4 0 47.7210329366916 46.514516930792965 31.759828218891037 0 0 0
2096 3 6 0 47.02263380497678 47.105655859127864 31.202498686766013 0 0 0
1633 3 1 0 42.33202818725056 48.70035443669564 34.485087488261776 0 0 0
1631 3 3 0 43.241091564920346 48.365930908976395 34.00768480708914 0 0 0
1634 3 6 0 45.21131495195242 47.930246675284145 34.819680392065614 0 0 0
446 1 1 0 42.890744876760536 47.47477461516634 61.108651299411946 0 0 0
448 1 11 0 45.8516130057921 46.91004142076619 60.2888047810742 0 0 0
2104 3 11 0 47.62739470068893 43.544213842967785 29.46106061725317 0 0 0
2106 3 8 0 48.444788500826775 43.079736435429325 29.60311567809847 0 0 0
2307 4 1 0 49.7623795544865 40.759491197349405 34.511352082288234 0 0 0
2099 3 9 0 49.357335108899434 45.143602401907636 30.8935196029954 0 0 0
2100 3 3 0 48.269669013031724 45.49034586365934 30.8080711157182 0 0 0
2102 3 1 0 48.315342111519314 46.03371608904594 29.81343098089206 0 0 0
2101 3 4 0 47.4374484500784 44.21258521241389 30.717352659380282 0 0 0
2105 3 7 0 46.34902915271435 44.43389079748276 30.930422185973242 0 0 0
3521 1 5 0 52.127221915771365 45.8878361391134 32.27137973592546 0 0 1
3514 1 5 0 50.65549811304751 43.21381733127489 29.79352511940879 0 0 1
3443 1 13 0 53.76555096771594 47.67389500445657 29.203237144049968 0 0 1
2314 4 1 0 51.94909028074825 41.864378225236585 33.86433996269149 0 0 0
3451 1 10 0 52.42131228008354 45.01626113650319 32.013759893715 0 0 1
3421 1 12 0 54.17148873680536 43.99796806381227 30.295119136977544 0 0 1