LAMMPS data file via write_data, version 23 Jun 2022, timestep = 1205007

3596 atoms
17 atom types
3632 bonds
18 bond types
6624 angles
31 angle types

28.716669880139193 61.67233011986395 xlo xhi
28.479168880139184 61.43482911986394 ylo yhi
28.54067088013919 61.496331119863946 zlo zhi

Masses

1 1.00794
2 1.00794
3 12.0107
4 12.0107
5 1.00794
6 1.00794
7 1.00794
8 1.00794
9 1.00794
10 15.9994
11 15.9994
12 15.9994
13 28.085501
14 12.0107
15 12.0107
16 1.00794
17 15.9994

Pair Coeffs # lj/cut/omp

1 0.038 2.44997
2 0.038 2.44997
3 0.039 3.87541
4 0.039 3.87541
5 0.038 2.44997
6 0.038 2.44997
7 0.038 2.44997
8 0.038 2.44997
9 0.038 2.44997
10 0.228 2.85978
11 0.228 2.85978
12 0.228 2.85978
13 0.04 4.05343
14 0.148 3.61705
15 0.039 3.87541
16 0.038 2.44997
17 0.228 2.85978

Bond Coeffs # harmonic/omp

1 340.618 1.105
2 340.618 1.105
3 322.716 1.526
4 340.618 1.105
5 340.618 1.105
6 340.618 1.105
7 384 1.42
8 540.634 0.96
9 540.634 0.96
10 222.4 1.382
11 540.634 0.96
12 392.8 1.6652
13 392.8 1.6652
14 283.092 1.52
15 340.618 1.105
16 615.322 1.23
17 322.716 1.526
18 340.618 1.105

Angle Coeffs # harmonic/omp

1 39.5 106.4
2 44.4 110
3 39.5 106.4
4 44.4 110
5 39.5 106.4
6 46.6 110.5
7 44.4 110
8 44.4 110
9 70 109.5
10 46.6 110.5
11 44.4 110
12 58.5 106
13 33.3 113.4
14 33.3 113.4
15 33.3 113.4
16 33.3 113.4
17 39.5 106.4
18 57 109.5
19 57 109.5
20 42.3 113.1
21 42.3 113.1
22 42.3 113.1
23 31.1 149.8
24 46.6 110.5
25 45 109.5
26 50 120
27 68 120
28 46.6 110.5
29 44.4 110
30 55 120
31 39.5 106.4

Atoms # full

748 2 4 0 31.42411073114125 34.05877564732934 30.92705849366397 0 0 0
754 2 3 0 30.44979305158939 34.28701057787289 32.055315622477806 0 0 0
756 2 1 0 29.446834556368504 33.741960401928864 32.120538625325 0 0 0
41 1 6 0 31.987228809983698 30.37011181354377 32.31248378037764 0 0 0
752 2 8 0 33.0825243211872 33.02794116155207 31.015990162908118 0 0 0
751 2 11 0 32.14644239324937 32.83041260811722 31.072856024351786 0 0 0
39 1 4 0 31.874711119081727 29.653688946698857 33.13911264405168 0 0 0
35 1 11 0 29.637386486108095 31.573640438354456 33.640176380341124 0 0 0
36 1 8 0 29.210405754580464 32.32762004819354 34.02384341660971 0 0 0
32 1 4 0 29.757350909303117 30.44983020957437 34.42754123703542 0 0 0
753 2 9 0 30.92359629083377 33.91059164816311 33.018135075733284 0 0 0
48 1 6 0 32.306956399359464 29.101287250540203 30.508641482200204 0 0 0
903 2 1 0 35.19632058298047 32.457771405561694 33.91432290914229 0 0 0
899 2 8 0 34.09411372368545 34.15961465512395 33.50910476189673 0 0 0
898 2 11 0 33.84331299414733 34.537983547934346 34.35991510334117 0 0 0
747 2 3 0 30.6211808413821 34.13075036993069 29.678376146605302 0 0 0
743 2 6 0 30.145167864366645 32.04226765737667 30.141039027525284 0 0 0
741 2 4 0 30.23121480225251 32.68990585146856 29.290452964969056 0 0 0
56 1 11 0 33.70893779147845 30.208269607638915 28.940468280876082 0 0 0
52 1 3 0 34.458896741960245 28.832331996391964 30.680662587802072 0 0 0
746 2 9 0 29.65634950186186 34.66988021387939 29.773777814715263 0 0 0
740 2 3 0 28.880528574038976 32.637045622905504 28.567858117156227 0 0 0
38 1 3 0 30.418608844027453 29.386865787365046 33.508084157209154 0 0 0
42 1 11 0 32.54802581277991 30.214009787476023 34.320889427651394 0 0 0
37 1 9 0 29.77114663137615 29.307399096148572 32.56694391063713 0 0 0
749 2 1 0 31.11167945746009 34.74119985929729 28.980224700367444 0 0 0
53 1 4 0 34.63879325380558 29.204982441783248 29.222340695588386 0 0 0
54 1 1 0 34.726627127422844 29.721627486252846 31.281110096140047 0 0 0
750 2 6 0 32.26723247427613 34.77202159230709 30.90076692622426 0 0 0
2113 4 11 0 35.013953994185265 34.51296866030917 30.214887883162255 0 0 0
43 1 8 0 33.329235365580125 30.649466098519817 34.024043305209425 0 0 0
1461 3 8 0 30.65357148645282 29.60413767501054 28.6943777738987 0 1 0
57 1 8 0 33.77141910094433 30.935349588545396 29.572503261994672 0 0 0
1460 3 11 0 30.204259459619326 28.834621691081804 29.094145210550767 0 1 0
2109 4 4 0 34.98293071967649 35.061900552484865 28.824411238755793 0 0 0
900 2 9 0 36.12707030107474 33.50655777600604 34.966878220628715 0 0 0
61 1 1 0 36.185501578191925 30.548947418345744 29.988356927845704 0 0 0
1136 2 11 0 38.9679921978917 30.702295068108764 31.01670351013623 0 0 0
1133 2 4 0 39.25616177631639 29.71620422404601 32.015836836603285 0 0 0
1137 2 8 0 39.2377282521073 30.363409901312743 30.117428080438227 0 0 0
161 1 11 0 37.850591676489046 34.43001279382266 32.800141251675896 0 0 0
162 1 8 0 37.46967170802934 33.81195858812718 33.449024943161234 0 0 0
1135 2 6 0 39.723925243914 30.296787034903787 32.89618847110433 0 0 0
154 1 11 0 40.33208164302013 33.64516767517306 33.77117591042449 0 0 0
155 1 8 0 40.52098464005405 33.52753524311737 32.85967332382042 0 0 0
2882 5 17 0 40.406303229147326 33.244789780317745 29.703912432671746 1 -1 1
912 2 11 0 38.152664828370014 31.718053715066365 34.651547308447014 0 0 0
913 2 8 0 38.045266914115025 30.973445764239663 34.12045713358171 0 0 0
151 1 4 0 40.61684143620682 34.99619619914375 34.05995807668256 0 0 0
920 2 8 0 40.938170202450976 31.326340330470565 34.81881385745785 0 0 0
59 1 3 0 36.02632645372254 29.84473294313011 29.19666838795519 0 0 0
58 1 9 0 36.69026636233989 29.085181766415804 29.529281493341674 0 0 0
1140 2 4 0 41.75121338118834 29.389018760777077 31.846478736151987 0 0 0
1142 2 6 0 41.83945946236684 29.08919997473911 32.918567292459116 0 0 0
1138 2 9 0 40.356428509442225 28.74684820721637 30.39757389941188 0 0 0
1139 2 3 0 40.370143581126925 28.80910563097209 31.46847504034495 0 0 0
1131 2 9 0 37.1596941722656 29.765296217516973 32.55180310501143 0 0 0
2877 5 14 0 41.52726968501864 33.507215934437426 29.312089086262972 1 -1 1
1144 2 8 0 41.520558433998616 31.14134747384608 31.034323300512256 0 0 0
2114 4 8 0 35.91490650202543 34.62041219463847 30.575634910484 0 0 0
1132 2 3 0 37.97901180993414 29.020264271076815 32.34137873032811 0 0 0
901 2 3 0 35.341199762758045 32.76387171076721 35.01099783546535 0 0 0
1124 2 9 0 36.438758144844165 28.75301658438909 34.55760666301278 0 0 0
68 1 1 0 37.90674784241195 31.42997431484647 28.674446672879387 0 0 0
1143 2 11 0 42.05395504545102 30.77764269915836 31.72187217555912 0 0 0
2874 5 15 0 42.01164034260504 34.93959636920449 29.562517942643936 1 -1 1
146 1 6 0 42.779365415849774 33.48361409277665 32.767172293542586 0 0 0
139 1 6 0 43.27492884453418 31.566995619693667 34.87824696335897 0 0 0
137 1 4 0 44.042117721539334 32.36938980738723 34.83369054329413 0 0 0
140 1 11 0 44.6922663091755 32.19575291093084 33.57620423834823 0 0 0
141 1 8 0 44.66946223647522 31.257144774820198 33.3928107541297 0 0 0
117 1 1 0 47.46857143885276 29.993488325716225 32.17165547684174 0 0 0
105 1 11 0 46.674663529561144 33.54833431174322 30.46414728859478 0 0 0
104 1 6 0 46.273361428540625 31.626019868550884 30.177335721817258 0 0 0
102 1 4 0 47.081368785904694 32.33291708677235 29.863765216246 0 0 0
106 1 8 0 46.4867558374427 33.26808477484928 31.379631161322447 0 0 0
143 1 3 0 43.40014694220996 33.74952704083151 34.89653077365402 0 0 0
144 1 4 0 43.125291060326944 34.3034321662214 33.471157906029 0 0 0
131 1 1 0 46.46748008023445 30.319040724767238 34.68328591109306 0 0 0
123 1 4 0 48.46993325797093 31.17673603276639 34.47912002068432 0 0 0
125 1 6 0 48.16859183235652 31.736279753094944 33.56602564539531 0 0 0
2879 5 16 0 43.090660120338704 35.01763551348793 29.783765439760973 1 -1 1
1149 2 6 0 44.21046447033049 28.813972925780504 32.949630514684344 0 0 0
1151 2 8 0 45.381979603034914 29.18827720503251 31.31816264213083 0 0 0
108 1 3 0 48.37710874762846 31.94916421781268 30.437846205275456 0 0 0
107 1 9 0 48.443898078198394 32.20652013096141 31.540754015525113 0 0 0
111 1 6 0 47.88765905131271 29.959623518819786 29.61958563519205 0 0 0
115 1 3 0 48.433402810400096 29.822074814989826 31.7231413597936 0 0 0
114 1 9 0 48.43185041144272 28.75644992944796 31.620130776276348 0 0 0
148 1 8 0 44.43193489160907 34.695806723058745 32.0163195405443 0 0 0
147 1 11 0 44.33627369104807 34.93847215762378 32.95696213577846 0 0 0
1145 2 9 0 43.23143961694423 28.979703092379584 30.175329082345943 0 0 0
1146 2 3 0 42.85467054089552 28.533894969438272 31.214285628406408 0 0 0
132 1 6 0 46.721704602669135 32.93836683191492 35.04031729997212 0 0 0
2883 5 16 0 42.153451088830394 32.73425627833961 28.875861085840604 1 -1 1
124 1 1 0 48.61464197694714 28.94047999303618 34.204107842864936 0 0 0
2181 4 1 0 48.62557694158433 34.613419335399 32.762599193338296 0 0 0
110 1 1 0 49.23776402608765 32.48302297385092 30.047935410356853 0 0 0
122 1 3 0 49.1634735071125 29.885211415309314 34.048701931450665 0 0 0
109 1 4 0 48.552925478613744 30.43502460125708 30.324134772566417 0 0 0
118 1 6 0 50.163920772096766 30.981647604637587 32.57098111297523 0 0 0
121 1 9 0 50.06143464227727 29.76236228382386 34.72943052928983 0 0 0
116 1 4 0 49.62523118354012 29.987655999521827 32.57218315850551 0 0 0
119 1 11 0 50.55462750900758 28.929223782134976 32.25010263720054 0 0 0
120 1 8 0 51.34328423231059 29.077401945790093 32.84118778963425 0 0 0
2901 7 15 0 54.03827508666397 29.364521913256247 29.563301432020737 0 1 1
2900 7 15 0 53.50663621569183 30.420683019465017 30.473803769547207 0 1 1
112 1 11 0 49.871612644430755 30.23558996178384 29.857463387293727 0 0 0
2899 7 14 0 53.64466498328102 31.846326461264333 29.79831819424975 0 1 1
113 1 8 0 49.91342405557874 29.3943051934151 29.41612692726851 0 0 0
2906 7 16 0 54.38333000884347 29.883490591735512 28.633839051410156 0 1 1
2911 7 16 0 53.05737294353233 32.029684443201255 28.805517140535354 0 1 1
2202 4 1 0 52.850949976148385 33.40188146660289 35.005917222609966 0 0 0
2910 7 17 0 54.17324231912596 32.750379055062005 30.469261311433208 0 1 1
2905 7 16 0 54.923303559907936 28.829298886077808 29.987186798303743 0 1 1
2902 7 16 0 52.41005681249693 30.24275235823366 30.700750218260097 0 1 1
2195 4 1 0 52.820588583324025 34.26344671600992 32.70794131954864 0 0 0
2185 4 9 0 51.25174472757634 34.9024551562309 30.915955265160164 0 0 0
2903 7 16 0 54.1346197944265 30.2940389349309 31.37034880826147 0 1 1
2188 4 1 0 50.76175334002404 34.51894475917186 32.63371642319623 0 0 0
127 1 8 0 50.12992695887374 32.18666854062268 34.48027117550529 0 0 0
126 1 11 0 49.42735964420987 32.01236294778507 35.11544458280975 0 0 0
31 1 3 0 61.3260403429239 29.91240982500283 34.76792435221907 -1 0 0
736 2 6 0 60.643872356197335 32.859134589757744 30.435970737528166 -1 0 0
30 1 9 0 60.67037476791353 30.010999056051055 33.92383916504873 -1 0 0
730 2 11 0 60.60265371742777 29.132102570949225 31.0155626843661 -1 0 0
724 2 8 0 56.551432069142926 30.539541785617278 32.7797202172246 -1 0 0
738 2 8 0 58.95932926593439 33.44237144394433 29.352120999034266 -1 0 0
737 2 11 0 59.50320501281634 32.88459211276062 28.71677093810406 -1 0 0
734 2 4 0 60.60798771858599 32.39318109292407 29.446944997876468 -1 0 0
733 2 3 0 60.43345599227285 30.878061810737105 29.496755238536675 -1 0 0
2 1 3 0 57.438324738755185 33.918142741379555 32.27888167926277 -1 0 0
4 1 1 0 58.43708736271539 33.530437319035386 31.946609157230426 -1 0 0
20 1 6 0 59.07933426179204 31.56877124826873 34.23174483773825 -1 0 0
729 2 6 0 60.16901696500496 30.988625248801853 31.635722175762044 -1 0 0
10 1 3 0 57.41069871654794 34.65376737609024 34.78910664252188 -1 0 0
13 1 6 0 59.28600690797366 33.77047588408831 34.24607488379913 -1 0 0
5 1 2 0 56.72550700991683 33.144311191070464 32.50535617824424 -1 0 0
727 2 4 0 59.90148365035553 30.3193334087206 30.859300317891908 -1 0 0
723 2 11 0 56.60198765363922 29.84569090127084 32.05626721604733 -1 0 0
9 1 9 0 56.57113323939378 34.14955501012935 35.14413009229562 -1 0 0
732 2 9 0 59.78883657028389 30.67280814025809 28.66609222776713 -1 0 0
735 2 1 0 61.40013386614219 30.386712356860894 29.20823500931061 -1 0 0
725 2 9 0 57.939373868434835 30.997720927386837 30.68204911482033 -1 0 0
726 2 3 0 58.460003543325655 30.030244140611128 30.78736102300844 -1 0 0
720 2 4 0 57.87077430465297 29.25163295305453 31.928611862116597 -1 0 0
722 2 6 0 58.45126090816529 29.446835194431245 32.87036127149814 -1 0 0
1 1 9 0 57.06544826070106 34.298652085431215 31.313616624150246 -1 0 0
731 2 8 0 60.34419023621203 28.673188035299336 30.20544511461561 -1 0 0
728 2 1 0 58.27957072241166 29.516795002882624 29.79802561463281 -1 0 0
33 1 1 0 61.29110143968807 28.825500719772386 35.071268201263564 -1 0 0
21 1 11 0 57.165093535946966 31.00165546156035 34.93106332244612 -1 0 0
759 2 8 0 29.304140792597703 35.21786691921868 33.89062704202409 0 0 0
755 2 4 0 30.0520203864144 35.77375806508143 32.307550142441094 0 0 0
757 2 6 0 29.71895246152029 36.31415388623055 31.330908139363437 0 0 0
764 2 6 0 30.62212574815966 38.27844962054013 31.70774866614416 0 0 0
761 2 3 0 31.18240604010706 36.63257797406559 32.85058018794927 0 0 0
763 2 1 0 31.13356505145708 36.718938710866524 33.99595303411384 0 0 0
766 2 8 0 32.43225726900844 38.07403689307811 30.71471498884374 0 0 0
760 2 9 0 32.04814641286011 36.02167861032577 32.83521648482063 0 0 0
762 2 4 0 31.424370936824722 37.97091590732339 32.3561047664444 0 0 0
768 2 3 0 31.576269377939212 38.892991696503294 33.56141640856605 0 0 0
769 2 4 0 30.35490467865495 39.4948846803924 34.248583688703654 0 0 0
767 2 9 0 32.106401120573075 39.75225158172561 33.09896042594088 0 0 0
770 2 1 0 32.298205178884736 38.457574929178264 34.17305459540407 0 0 0
765 2 11 0 32.61981080288272 38.058481933613244 31.636549902196936 0 0 0
2124 4 4 0 34.8182925068246 39.74672456930449 29.158730287574837 0 0 0
177 1 9 0 34.58336972374025 41.044983899892465 33.199932515236185 0 0 0
3271 1 13 0 29.057485560383924 40.932953921178296 30.10030736039395 1 0 1
771 2 6 0 30.675251761761363 40.515466792635365 34.53039664196267 0 0 0
3237 1 12 0 30.366924053681508 40.47051433757061 29.201753966559743 1 0 1
2128 4 8 0 33.01192454308565 39.983067661982076 29.6727161185239 0 0 0
2127 4 11 0 33.680893332960856 40.60388577542075 29.482667900962134 0 0 0
772 2 11 0 29.264833780918764 39.58750302365614 33.354975213099145 0 0 0
170 1 9 0 34.92373489703158 38.14188503336891 33.18139224051523 0 0 0
169 1 8 0 35.18168028810164 36.697450328996695 35.11196364800128 0 0 0
178 1 3 0 35.20398715772253 41.00018589561505 34.181922141763486 0 0 0
2126 4 6 0 35.106066541202296 39.17505940563302 30.04331719816269 0 0 0
758 2 11 0 28.98248734713798 35.81001803382045 33.246338162354654 0 0 0
2115 4 9 0 34.13886073435755 36.700358213431855 29.903303360198073 0 0 0
773 2 8 0 29.027898332255795 40.541047536916864 33.32369353744699 0 0 0
3491 1 5 0 30.266589081935095 39.68330731756396 28.703084819300074 1 0 1
2116 4 3 0 34.36424172458701 36.44100060977973 28.794620617377884 0 0 0
153 1 6 0 40.532778909161394 35.19827903940561 35.1488796163657 0 0 0
160 1 6 0 38.11525808863134 35.28132776649145 34.56740291954257 0 0 0
158 1 4 0 38.2249897069051 35.57839946186894 33.53595053121489 0 0 0
156 1 9 0 39.71415421338088 35.63633839323188 32.1044903364266 0 0 0
2878 5 16 0 41.481713244465396 35.329192302948115 30.50638866194069 1 -1 1
2119 4 6 0 36.13668091085124 37.619164001211765 28.557595613906297 0 0 0
172 1 4 0 35.346457389359365 39.582366959083444 34.80527821227608 0 0 0
163 1 9 0 36.436004443902654 36.35960612632804 32.45404223443431 0 0 0
2130 4 3 0 36.047839782040285 40.47781509523732 28.730681094043 0 0 0
180 1 1 0 36.14219754262634 41.38405750978751 33.934412642091075 0 0 0
171 1 3 0 35.78724788707698 38.54296730819402 33.80306957912519 0 0 0
157 1 3 0 39.66792740847426 35.840951253396184 33.206567525824745 0 0 0
159 1 1 0 39.88668246415718 36.89282801617975 33.405615929443655 0 0 0
164 1 3 0 37.2424103238665 36.6980136882933 33.097774228054945 0 0 0
173 1 1 0 36.41164725866221 39.242597735903246 33.230809146756826 0 0 0
165 1 4 0 36.65624293497463 37.44897300432961 34.35148202974105 0 0 0
167 1 6 0 37.45793948527582 37.97363690875225 34.81407613692169 0 0 0
166 1 1 0 37.693939857992625 37.44237845656312 32.43469412704539 0 0 0
2148 4 11 0 41.119186845319746 38.89045818483366 31.204966315143324 0 0 0
2145 4 4 0 41.04603896079282 39.893764803388045 32.14291022094807 0 0 0
2147 4 6 0 41.1769169594817 39.49947628257851 33.1588239784155 0 0 0
2137 4 3 0 37.59659729159514 40.59424709228519 30.752326863578205 0 0 0
2139 4 1 0 37.22164580280429 40.97676799765222 31.767242398302 0 0 0
2143 4 9 0 38.84477960494649 39.872687706341836 32.5256326558546 0 0 0
2144 4 3 0 39.648498026405896 40.52648091952338 32.04667636640628 0 0 0
2141 4 11 0 39.7702629785055 40.49671828012897 29.533265875782597 0 0 0
2142 4 8 0 39.78306122508995 41.153347415903596 28.83347657046213 0 0 0
2149 4 8 0 40.721717373810115 38.09285563718778 31.568490541560088 0 0 0
2138 4 4 0 39.07361698196095 41.0073322710917 30.646898580797032 0 0 0
2131 4 4 0 36.59723452563989 41.389756160343474 29.867540018213887 0 0 0
2146 4 1 0 39.692022135771495 41.444943547948526 32.70479243787416 0 0 0
2112 4 6 0 35.97723494717979 35.099206362019885 61.439827834932714 0 0 -1
2136 4 9 0 37.29359063199875 39.55884364046805 30.53249830952799 0 0 0
2872 5 16 0 40.06738015365648 36.82794520265865 29.57401909580894 1 -1 1
2151 4 3 0 42.13721462785837 40.93951555088414 32.12251035550865 0 0 0
2154 4 6 0 42.46743492427851 41.161058918292184 34.33537982288884 0 0 0
149 1 9 0 42.11200203804786 35.89966349954352 32.66634646170901 0 0 0
150 1 3 0 42.016874224475956 35.36565256766955 33.62850957310269 0 0 0
152 1 1 0 42.32440145277354 36.13596527807948 34.31059527820004 0 0 0
2152 4 4 0 42.98720138001606 41.148415387267704 33.34230967984525 0 0 0
2153 4 1 0 42.85030568042246 40.69810327975127 31.339282975849674 0 0 0
2157 4 9 0 44.47508327084376 40.07402627478537 32.29554820070242 0 0 0
2158 4 3 0 43.98312235959824 40.0408949201696 33.31981672701199 0 0 0
2169 4 11 0 45.62468676962599 37.48375092494281 32.6619154551717 0 0 0
2166 4 4 0 46.48656764293603 37.85831790945332 33.774032378014 0 0 0
2172 4 3 0 47.03133412238048 36.61324542251842 34.35210595727488 0 0 0
2170 4 8 0 45.791782658619454 38.10905624088117 31.974926809476347 0 0 0
2171 4 9 0 46.39725350340815 35.76942422835461 33.90584779838512 0 0 0
2093 3 3 0 45.16264986912178 38.97340613432297 29.320296595499173 0 0 0
2092 3 9 0 44.66838140542401 38.831439304435435 30.277785666794074 0 0 0
2160 4 1 0 43.55217521054001 39.00230963730353 33.32817167401533 0 0 0
2095 3 1 0 46.06611332682089 39.53198184755314 29.563802317639304 0 0 0
2161 4 6 0 45.97563466802026 40.6263266018788 33.928335775694265 0 0 0
2098 3 8 0 45.55700674526338 35.734916696917104 29.06893009663581 0 0 0
2097 3 11 0 45.48708106902141 36.61181303866109 29.492970822007372 0 0 0
2178 4 9 0 47.7940123245957 35.86520870816606 32.050468323313204 0 0 0
2164 4 9 0 44.669588320696754 38.08961705925684 34.78146834125023 0 0 0
2090 3 11 0 42.915573129351024 39.657168746368896 28.71668539495381 0 0 0
2094 3 4 0 45.43783926137206 37.659256931297186 28.57478067430769 0 0 0
2087 3 4 0 44.307913328512726 39.96872564636789 28.57410545956002 0 0 0
2159 4 4 0 45.152401247964335 40.02545488002142 34.2858380093897 0 0 0
2085 3 9 0 44.68411907875695 41.341656873243124 30.212137560358844 0 0 0
2168 4 6 0 47.371351946905364 38.49190433087756 33.484961506214745 0 0 0
2165 4 3 0 45.59951361536389 38.67733978874334 34.69251604047859 0 0 0
2086 3 3 0 44.623997489943704 41.354216277370796 29.125153959067053 0 0 0
2173 4 4 0 48.52052759450013 36.4939449687978 33.987318456963024 0 0 0
2179 4 3 0 48.650306145316804 35.741192408112894 32.66362212098351 0 0 0
2175 4 6 0 48.970167994006516 37.50534944799707 33.96800668899943 0 0 0
2316 4 11 0 48.601844346264606 40.28130821269965 34.03235513517855 0 0 0
2317 4 8 0 49.197115479038175 39.72159335304327 33.4709013498869 0 0 0
2183 4 11 0 49.38400329285766 36.29702026863126 30.40517719358277 0 0 0
2184 4 8 0 48.76794242401752 35.60646696442907 30.14938580505401 0 0 0
2192 4 9 0 54.145842996930874 35.411285832601656 32.77595583233365 0 0 0
2193 4 3 0 53.070662431918734 35.209348411889124 33.10024683412287 0 0 0
2194 4 4 0 52.93958727666626 35.430493792045276 34.589076651304424 0 0 0
2191 4 8 0 52.67787589121847 36.14483684117437 30.521528280049605 0 0 0
2180 4 4 0 49.796290069916 36.27389979618915 31.791056362783937 0 0 0
2182 4 6 0 50.084064765477635 37.30338917144253 32.06939952618319 0 0 0
2186 4 3 0 51.00523067718688 35.339380213641064 31.913675172083867 0 0 0
2190 4 11 0 52.952764564882685 36.708338940329554 31.179651628753916 0 0 0
2187 4 4 0 52.24052186786571 36.21082820079491 32.30850016194282 0 0 0
2189 4 6 0 51.97140568826613 37.05433169867519 32.84253439212835 0 0 0
3325 1 13 0 54.47795738310505 40.475705659106865 29.597492773751547 0 0 1
3265 1 12 0 50.23107844259731 39.508667079386086 29.48127286724704 0 0 1
3295 1 12 0 53.606032904903024 40.384748871543465 30.95698942469224 0 0 1
3495 1 5 0 49.54105193517348 38.85563655185736 29.44871862767757 0 0 1
2323 4 11 0 50.98784514401322 41.279446610015434 32.70440521054985 0 0 0
2330 4 11 0 54.834426639819455 39.582071849531616 33.92691737663063 0 0 0
2320 4 4 0 51.59078038188272 41.5382662969707 33.93546469581862 0 0 0
3500 1 5 0 53.26982549600392 39.556737261552044 31.23918573091968 0 0 1
3481 1 5 0 54.42244663113473 35.47996697512663 29.17592681724194 0 0 1
2329 4 6 0 54.22601971284351 41.43248595819797 33.18982605130782 0 0 0
2319 4 3 0 50.55682560958083 41.57374904648628 35.080237926447516 0 0 0
2327 4 4 0 54.077475341763105 40.74858993410367 34.09594911803884 0 0 0
2326 4 3 0 52.58266480463069 40.453853044414984 34.31309598636874 0 0 0
2176 4 11 0 49.24367036777415 35.73250163557894 35.03643668050693 0 0 0
2197 4 11 0 53.75929263742269 36.6220796669422 34.910300151338 0 0 0
2196 4 6 0 51.876997294668435 35.68376967087755 34.639221889531626 0 0 0
2325 4 9 0 52.41214780283521 39.573151478546805 33.68171006768946 0 0 0
3 1 4 0 57.424129838706435 35.0912976663762 33.29091352174561 -1 0 0
7 1 11 0 58.49710655850407 36.02775589294035 33.12140681086236 -1 0 0
3480 1 5 0 57.91582192878282 36.198415789468335 30.34247288117021 0 0 1
3174 1 12 0 58.05498917884829 35.613597250660106 29.615574705823384 0 0 1
8 1 8 0 58.29247977145821 36.756998034133005 33.75935145097503 -1 0 0
6 1 6 0 56.51678848242649 35.657794253456245 33.06140661738309 -1 0 0
3177 1 12 0 55.26398078100577 35.30451519599409 29.6136065845655 0 0 1
3276 1 12 0 61.304750807867364 39.496559128609434 30.56988150603848 0 0 1
3499 1 5 0 55.87047233162642 37.501257306365034 31.08679135785925 0 0 1
3292 1 12 0 55.99262862307769 39.72444662190743 29.790603586930935 0 0 1
3497 1 5 0 60.07364534140507 37.32628626788678 31.227414389122476 0 0 1
3289 1 12 0 56.65783300684066 37.89300874652634 31.508266016960846 0 0 1
3286 1 13 0 57.18410051363039 39.33951271166457 30.859877269226143 0 0 1
3274 1 13 0 60.097388833720984 38.389801853846876 30.251491182497816 0 0 1
3283 1 12 0 58.71383305932176 39.24383551212661 30.227859983029962 0 0 1
3452 1 10 0 57.209113524006156 40.45036507020953 32.142783995461116 0 0 1
3150 1 12 0 60.32380587782422 37.808347137642016 28.652407907604427 0 0 1
3522 1 5 0 57.231826752894406 41.37288545681916 31.76877280739599 0 0 1
3511 1 5 0 59.57216772867221 41.50937978628359 32.90353491659225 0 0 1
2331 4 8 0 55.08660642354119 39.678848050342765 33.011013815621965 0 0 0
3198 1 13 0 56.669323687227305 35.534172057755825 28.721465206610635 0 0 1
3453 1 10 0 29.62580306397978 41.88273493308121 31.388060580999767 1 0 1
1996 3 4 0 31.683927281348577 44.946763346874505 32.7050564406528 0 0 0
2005 3 6 0 31.62908634325305 47.296728150230535 31.53528798076387 0 0 0
2002 3 3 0 32.89933476287386 45.548380647487704 31.996251778661776 0 0 0
1998 3 6 0 30.662951513897053 45.07336437655481 32.204689676985794 0 0 0
2003 3 4 0 32.699417198665685 47.0032413222053 31.572677431985788 0 0 0
2004 3 1 0 33.75840674170131 45.54179464211533 32.75397213223128 0 0 0
1995 3 3 0 31.533490699261925 45.496104220301106 34.19136849227782 0 0 0
2001 3 9 0 33.34928741396623 44.77270953194464 31.32282036056356 0 0 0
2009 3 3 0 33.27241815355855 47.05814823507746 30.129936601311012 0 0 0
2008 3 9 0 32.769703234977854 46.316856859546604 29.51798593173627 0 0 0
3454 1 10 0 29.002204562917402 45.71057368610417 29.06331659311513 1 0 1
1999 3 11 0 31.88589963589035 43.51016608940792 32.76440403623968 0 0 0
2000 3 8 0 32.767645143311256 43.35271683794619 32.92268421051776 0 0 0
1997 3 1 0 31.88215189892139 46.56354659392837 34.35976224529951 0 0 0
2011 3 1 0 34.25455544245183 46.463752855351544 30.00011126936952 0 0 0
3524 1 5 0 29.523319930758163 46.249794340798076 29.70441501392796 1 0 1
1991 3 6 0 29.38486843762468 44.90190385941996 34.02635260685891 0 0 0
1989 3 4 0 30.165977790689524 45.212249091546525 34.789142105346414 0 0 0
1994 3 9 0 32.302345580922875 44.96533675675245 34.72954462409861 0 0 0
1984 3 6 0 30.40168403126458 47.83754953528374 34.008936424376266 0 0 0
3489 1 5 0 30.885149659034234 43.10968512178633 29.362798332713545 1 0 1
3523 1 5 0 29.054265774494198 42.578394773881094 31.616432620638754 1 0 1
182 1 11 0 33.134298889660585 41.85605887940632 34.967283934731434 0 0 0
187 1 1 0 35.03754543787339 43.571731487918896 34.07225563358423 0 0 0
1986 3 8 0 28.75892201039281 47.244204637175294 33.00842670828871 0 0 0
1982 3 4 0 29.518520792833318 47.75938449488002 34.67047897688761 0 0 0
2006 3 11 0 33.347126935183226 47.83883956901455 32.492838115920534 0 0 0
3231 1 12 0 31.213649249064847 43.99706792607978 29.10568184005152 1 0 1
2150 4 9 0 41.65547089541482 41.92861286749228 31.833465694727533 0 0 0
2134 4 11 0 35.67447551768649 41.84902571737375 30.75979942905184 0 0 0
2140 4 6 0 39.26096935038237 42.07392812590623 30.721959846889778 0 0 0
2135 4 8 0 36.03681265507022 42.72925435493836 30.98977418047189 0 0 0
2133 4 6 0 37.05297344074245 42.204578995374774 29.382910766722347 0 0 0
1589 3 3 0 38.636957394651766 45.14876355140865 31.629774281003584 0 0 0
1588 3 9 0 38.292249757207216 44.1890892486785 31.155879823384325 0 0 0
1590 3 4 0 39.96756340326107 45.495420048842426 30.97267909843344 0 0 0
1591 3 1 0 38.63431537182989 45.05358830960835 32.73616638154177 0 0 0
1593 3 11 0 39.919477095254976 44.9114687929458 29.732724921794684 0 0 0
1584 3 1 0 36.451491082444626 45.36482608683178 32.98932145320261 0 0 0
1583 3 4 0 37.543186728571825 46.15444481052086 31.22210814604003 0 0 0
1582 3 3 0 36.67508341295243 46.350879131057425 32.51188227685318 0 0 0
1586 3 11 0 36.635688765084105 45.54103793998009 30.264490920182745 0 0 0
1587 3 8 0 36.21030424824204 44.80374280800628 30.72305478948908 0 0 0
1598 3 1 0 40.98047044772904 44.23167970740344 32.558345899266854 0 0 0
1599 3 6 0 41.16655176813697 46.96716352809786 32.898456284498366 0 0 0
1581 3 9 0 35.61123482774294 46.62228634811035 32.24984242289514 0 0 0
1592 3 6 0 40.11256386111517 46.63715399163016 30.823548776428105 0 0 0
1585 3 6 0 37.8292196037823 47.10381979343866 30.755195276499443 0 0 0
1594 3 8 0 40.10636068109519 45.55206576722665 29.04988379706292 0 0 0
1596 3 3 0 41.19154957594675 45.035542757099684 31.85320911938786 0 0 0
194 1 1 0 37.44381568879842 42.82935588520155 33.965003096421945 0 0 0
1595 3 9 0 41.98146434712387 44.5880305300804 31.147272891085734 0 0 0
1578 3 6 0 36.78306937483305 47.544262743548884 34.41844778114951 0 0 0
1576 3 4 0 37.16200673426553 47.53059339639223 33.35865733779795 0 0 0
1579 3 11 0 38.566764152240935 47.53692929693295 33.46585202764258 0 0 0
191 1 9 0 37.69540835867792 44.52715694681374 34.54234627399283 0 0 0
192 1 3 0 37.52577136643026 43.50649743286889 34.919901705139104 0 0 0
198 1 9 0 39.993659044063094 43.99124430319932 34.73028492162369 0 0 0
201 1 1 0 40.418876684941075 42.369042460598365 34.733982290590546 0 0 0
1601 3 8 0 43.146491239004455 44.97348187034669 33.284386580270635 0 0 0
2155 4 11 0 43.76603623913009 42.31027535621228 33.191130926086196 0 0 0
1597 3 4 0 41.92302573488697 46.25706862323765 32.5259495391029 0 0 0
1600 3 11 0 42.75822556232714 45.8017076911006 33.57318733836147 0 0 0
1633 3 1 0 45.76027168326376 45.75509990552493 33.14489139377386 0 0 0
1631 3 3 0 46.26498594463867 44.78579143195971 33.136623770883496 0 0 0
1626 3 1 0 45.56425177237237 45.91085697475205 30.983510916729863 0 0 0
1624 3 3 0 46.66489401170344 45.80906805871781 30.889683977633517 0 0 0
1632 3 4 0 46.98816289372368 44.58818736532644 34.468462911283964 0 0 0
1640 3 1 0 44.88105987228042 44.46375325090517 35.077897306772655 0 0 0
1625 3 4 0 47.184970755290266 44.770773459132336 31.916881763933446 0 0 0
1623 3 9 0 46.8882017874349 45.38023842702002 29.87884566210343 0 0 0
1630 3 9 0 45.491255413163415 44.05489601729559 32.986042445865934 0 0 0
1627 3 6 0 48.18952555085026 45.10346016300508 32.13680761227813 0 0 0
2083 3 11 0 42.535336929529144 42.63930184943981 29.420233830088122 0 0 0
1634 3 6 0 47.80302753573738 45.302054068342905 34.5079753622031 0 0 0
1635 3 11 0 47.61507719929079 43.326080855127366 34.36960490117609 0 0 0
1603 3 3 0 42.69924907081471 47.06812967525141 31.536431625815183 0 0 0
1602 3 9 0 42.32202917214849 46.81348989952947 30.52795804347292 0 0 0
1636 3 8 0 48.338024018942534 43.35146237497523 33.702008566888 0 0 0
1605 3 1 0 43.725453099253585 46.577997512924824 31.539353215432783 0 0 0
2084 3 8 0 41.94985974309539 41.963338337563364 29.17074686429939 0 0 0
2078 3 9 0 44.38986288199638 44.12460083837014 29.548181191623932 0 0 0
2156 4 8 0 43.50541257218329 42.79656219474473 33.96532529304028 0 0 0
2088 3 1 0 45.63187746318188 41.636444400266484 28.79784998408004 0 0 0
2080 3 4 0 43.67943346068109 42.457847365911775 28.58046898813057 0 0 0
1628 3 11 0 47.03571576559325 43.50223817823521 31.317997972439656 0 0 0
1618 3 4 0 47.31765460225462 47.2194649849745 30.875703054979233 0 0 0
1616 3 9 0 46.44239883242544 47.76631602939686 32.750055502140306 0 0 0
1629 3 8 0 47.87357088056807 43.150293235969656 31.477645575580592 0 0 0
1620 3 6 0 48.35143183575725 47.236088126870385 31.253061344229973 0 0 0
1613 3 6 0 44.92682027607694 48.148396917117964 30.55794758493736 0 0 0
1617 3 3 0 46.645821825963274 48.24144991490762 31.791549564219583 0 0 0