LAMMPS data file via write_data, version 23 Jun 2022, timestep = 751606

2991 atoms
18 atom types
3046 bonds
16 bond types
5801 angles
31 angle types

30.19689063969995 59.91010936029868 xlo xhi
27.28239063970002 56.995609360298914 ylo yhi
30.165892639699955 59.87911136029868 zlo zhi

Masses

1 1.00794
2 1.00794
3 12.0107
4 12.0107
5 1.00794
6 1.00794
7 1.00794
8 1.00794
9 15.9994
10 12.0107
11 12.0107
12 1.00794
13 15.9994
14 15.9994
15 12.0107
16 12.0107
17 1.00794
18 15.9994

Pair Coeffs # lj/cut

1 0.038 2.44997
2 0.038 2.44997
3 0.039 3.87541
4 0.039 3.87541
5 0.038 2.44997
6 0.038 2.44997
7 0 0
8 0.038 2.44997
9 0.228 2.85978
10 0.148 3.61705
11 0.039 3.87541
12 0.038 2.44997
13 0.228 2.85978
14 0.228 2.85978
15 0.148 3.61705
16 0.148 3.61705
17 0 0
18 0.228 2.85978

Bond Coeffs # harmonic

1 340.618 1.105
2 340.618 1.105
3 322.716 1.526
4 340.618 1.105
5 340.618 1.105
6 340.618 1.105
7 384 1.42
8 540.634 0.96
9 283.092 1.52
10 340.618 1.105
11 615.322 1.23
12 322.716 1.526
13 340.618 1.105
14 384 1.42
15 540.634 0.96
16 384 1.42

Angle Coeffs # harmonic

1 39.5 106.4
2 44.4 110
3 39.5 106.4
4 44.4 110
5 39.5 106.4
6 46.6 110.5
7 44.4 110
8 44.4 110
9 70 109.5
10 46.6 110.5
11 44.4 110
12 58.5 106
13 39.5 106.4
14 57 109.5
15 57 109.5
16 46.6 110.5
17 45 109.5
18 50 120
19 68 120
20 46.6 110.5
21 44.4 110
22 55 120
23 39.5 106.4
24 70 109.5
25 57 109.5
26 70 109.5
27 57 109.5
28 80 109.5
29 70 106
30 80 109.5
31 58.5 106

Atoms # full

1913 3 1 0 34.37177865986455 30.85469143166066 32.37116231156306 1 1 0
1904 3 3 0 35.03925661600001 28.45614544030874 31.67066907537769 1 1 0
1906 3 1 0 34.02138728681139 28.843669682158996 31.79452017897177 1 1 0
2988 12 12 0 32.0280362876439 28.77094445710426 32.65335286454747 1 1 0
2982 12 16 0 31.370700339038397 28.144472100148548 33.27356184858189 1 1 0
1935 3 5 0 32.02574437428346 30.779311705608762 31.31932466769704 1 1 0
1903 3 8 0 35.19925331952931 27.740924312441958 32.43864003461071 1 1 0
1911 3 3 0 35.47302797398731 30.874740299912993 32.47560254180108 1 1 0
1910 3 8 0 35.6135319409954 30.82792844171634 33.584271128161994 1 1 0
2984 12 12 0 32.97310611591465 28.26483738681676 34.70363289597606 1 1 0
2976 12 11 0 31.217688586145407 27.90568972242427 35.88725347954289 1 1 0
2851 3 12 0 36.279290668443245 32.64786877344876 34.7103451398364 0 2 2
1918 3 3 0 35.32542620638229 32.871201403353986 30.777768006187543 1 1 0
2980 12 12 0 31.121892947258722 29.008827299033612 36.00070504223148 1 1 0
1920 3 1 0 34.290763220772696 33.05372280676578 31.242049186571233 1 1 0
1905 3 4 0 35.99295968300001 29.616777140977618 31.7413350771756 1 1 0
1912 3 4 0 36.181058004897 32.161800717179915 31.845254571244904 1 1 0
1232 2 1 0 32.157112340674914 34.095320688473016 35.64915107254486 1 0 0
1914 3 5 0 37.07937232691325 31.829972102031185 31.409230659332582 1 1 0
2845 3 12 0 36.93912508206617 30.51411812314325 34.94455382197426 0 2 2
2839 3 16 0 37.13383002672988 32.992629173315095 34.07564501581647 0 2 2
1915 3 14 0 36.5757482735067 33.29306533933706 32.76726957739592 1 1 0
2562 4 7 0 35.99219346572068 28.465096487544855 34.14273814575099 0 1 0
1933 3 4 0 31.1117998422074 30.963317479081663 30.74100712925393 1 1 0
2561 4 9 0 35.689745437391686 28.084052733219195 34.95847259149367 0 1 0
2979 12 11 0 32.025891005766624 27.68656989861113 34.60548701727617 1 1 0
1938 3 8 0 30.773118940875964 28.87687839760127 30.590632388955957 1 1 0
1907 3 5 0 36.26501766847272 29.874096151545356 30.67213768388083 1 1 0
1908 3 9 0 37.18558273522423 29.130496694382845 32.310186691395245 1 1 0
1226 2 5 0 34.065211227129296 33.59588670422579 36.41223971024145 1 0 0
1898 3 4 0 35.210337407467534 27.627651647601915 30.391032253591806 1 1 0
1957 3 14 0 31.056184724912757 56.73423416374098 32.38923444799376 1 0 0
1936 3 9 0 30.567102130357583 32.11637695017805 31.28842434465076 1 1 0
1230 2 3 0 32.06743267126936 34.02116972145881 36.717346757737175 1 0 0
1909 3 7 0 37.07795428614761 29.120331313227652 33.292768434876066 1 1 0
1937 3 7 0 31.188221478749416 32.81398664994126 31.124371868099498 1 1 0
2975 12 11 0 31.789908233545518 56.97073898887011 37.08812951885605 1 0 0
1917 3 8 0 35.72908860379307 33.83696854422322 30.71103567579442 1 1 0
448 1 14 0 37.47298693145072 34.30730504172116 34.615499892811336 0 0 0
1943 3 14 0 30.210504652756125 28.940045025814964 33.47762915067582 1 1 0
1939 3 3 0 30.2012792746523 29.771207902965674 30.90523150749855 1 1 0
1901 3 9 0 36.22051641039022 56.33168012858932 30.66624285898891 1 0 0
1224 2 4 0 33.486109097488296 33.793925527557825 37.32296043340987 1 0 0
2981 12 12 0 59.89235247221059 27.655798062645932 35.775203778978856 0 1 0
1231 2 4 0 31.354700585348002 35.17618933915832 37.32145950300623 1 0 0
2846 3 12 0 37.878010802484056 31.39814941093104 36.20364840708881 0 2 2
2841 3 11 0 37.90270011133863 30.969921798425016 35.13246358764105 0 2 2
2843 3 12 0 38.28191335109172 31.325662796453603 33.10683040801663 0 2 2
450 1 8 0 38.711784902930404 33.20766866074651 36.60554171519 0 0 0
2840 3 11 0 38.26605608471087 31.945960195880986 34.046054892689426 0 2 2
2842 3 12 0 39.2327758029021 32.35033187867463 34.244358720292084 0 2 2
2844 3 11 0 39.038533703635196 29.844356312055478 35.109111123264 0 2 2
2849 3 12 0 39.071981676211664 29.440728446143495 34.088623993004255 0 2 2
2848 3 12 0 40.06189193892785 30.270301752987198 35.19162083760701 0 2 2
2847 3 16 0 38.91273609084425 28.762739644789544 36.182084184230355 0 2 2
2686 4 5 0 39.10861401216239 32.730717781427444 31.509765443369744 0 1 0
2708 4 9 0 42.17261080592968 32.291303118907074 33.0764885804539 0 1 0
2709 4 7 0 41.686829791196025 33.06252570187662 32.753023538101786 0 1 0
2711 4 3 0 44.17970347319047 31.22311700216428 32.56105599570243 0 1 0
2712 4 4 0 43.70214954142101 30.61680950761372 31.263529665319144 0 1 0
2705 4 4 0 43.570916309989215 32.483003774720416 33.06077665500041 0 1 0
2715 4 9 0 42.99806775565407 29.40696451126002 31.527987105676896 0 1 0
2707 4 5 0 43.77556900820574 32.60745374756823 34.17601015714543 0 1 0
2706 4 1 0 43.817712916704906 33.41503739475324 31.13123586873054 0 1 0
2704 4 3 0 43.93805853038576 33.72487437305976 32.18375569723769 0 1 0
2853 3 12 0 38.10326948444443 28.812934455393545 36.946191519083676 0 2 2
1509 3 14 0 40.22309790114566 28.840191528660856 36.90510476960279 0 0 0
2692 4 1 0 41.46847072973783 33.09529836936329 30.439720455277797 0 1 0
2690 4 3 0 40.64220397549823 33.810605010191395 30.40080344306905 0 1 0
2703 4 8 0 45.00983741053032 33.987389229268885 32.182635208357745 0 1 0
2693 4 5 0 40.54502292937591 34.31388015873955 32.516011720599465 0 1 0
2554 4 14 0 38.87593891520462 27.562367659706286 35.43468207703328 0 1 0
2684 4 4 0 39.27470571477009 33.20792588826724 30.512469762587134 0 1 0
455 1 9 0 40.89728995901744 32.53160191234373 36.25017672749748 0 0 0
2687 4 14 0 38.263959318871215 34.2456450228396 30.275404789007013 0 1 0
1497 3 8 0 42.26423077975461 56.96155720637195 37.29333841585545 0 -1 0
2710 4 8 0 44.13534433072705 30.53470287877988 33.38137699224137 0 1 0
1735 3 8 0 41.229812554297894 56.88355443486728 31.837648154329866 0 0 0
1742 3 8 0 44.260553462336524 56.87185119678931 33.32755303391967 0 0 0
2681 4 7 0 40.787588934265976 31.493445380721056 31.129451931668868 0 1 0
2680 4 9 0 40.34926369980144 30.62974538970428 31.081337092180423 0 1 0
452 1 4 0 40.70975234465705 33.92411131837858 36.408686619115365 0 0 0
447 1 5 0 39.56345744815796 34.2964583101869 34.21857152023298 0 0 0
451 1 3 0 39.19064148115491 34.220053008103044 36.31184457270047 0 0 0
456 1 7 0 41.876802397948765 32.42885509587734 36.154377868472324 0 0 0
2714 4 5 0 43.07750074854527 31.21816938161649 30.654359156216245 0 1 0
2718 4 3 0 44.91404113928265 30.07977341004739 30.419893291922328 0 1 0
2713 4 1 0 45.292489363995514 31.269590178097634 32.546624590561784 0 1 0
2700 4 5 0 42.49163052444416 34.72757054428673 33.59724453351555 0 1 0
2698 4 4 0 43.10694201848566 34.96166720891381 32.63691465466186 0 1 0
454 1 5 0 41.189685725074106 34.4504630989823 35.545662136965674 0 0 0
1734 3 7 0 38.86385967986215 56.321034118224574 31.33544641188916 0 0 0
698 1 1 0 46.00127916254989 31.507234229434978 35.98096290920439 0 0 1
688 1 8 0 45.180182553735015 28.0642385843838 36.26193657712149 0 0 1
2717 4 8 0 45.406012970689694 29.302490887423673 31.043923600884114 0 1 0
691 1 1 0 45.213657628955055 29.51035872035928 35.3860792193691 0 0 1
690 1 4 0 46.052414594958215 29.795356557595422 37.33801425990291 0 0 1
696 1 3 0 46.07942107005313 31.249237111942037 37.02985196034116 0 0 1
689 1 3 0 45.820699400010895 28.97825411048013 36.07277025152142 0 0 1
683 1 4 0 47.1066722536644 28.49581543900567 35.36269133115521 0 0 1
682 1 3 0 47.472206477464226 29.369523535103163 34.18631151423868 0 0 1
685 1 5 0 47.94559416449255 28.556100810352724 36.10033244029196 0 0 1
678 1 5 0 49.50318212990747 29.31304158051912 33.98904840426189 0 0 1
676 1 4 0 48.67233399163529 28.92549791854828 33.41124876340927 0 0 1
675 1 3 0 48.60236024772807 29.520629944036603 32.03008361844127 0 0 1
931 2 1 0 49.717322613025985 31.925871342370268 33.755329641108446 0 0 1
929 2 3 0 49.98597127779365 32.4845210574048 34.67356841895183 0 0 1
930 2 4 0 49.87760405855626 33.99532924855177 34.32034527712963 0 0 1
928 2 8 0 49.265206209139876 32.184539099816824 35.48927491785622 0 0 1
938 2 1 0 47.69251826715012 34.11038544140959 34.311307477603776 0 0 1
936 2 3 0 48.528359258710665 34.38983699780427 33.68395793125957 0 0 1
669 1 4 0 49.96789972720059 29.659448120195893 31.314902521837045 0 0 1
923 2 4 0 51.46669796775831 32.23074255662134 35.14152459009876 0 0 1
684 1 1 0 47.69675157906419 30.438158005173406 34.518163784327236 0 0 1
671 1 5 0 50.644673378558664 29.016603148936706 31.949463632763784 0 0 1
672 1 14 0 50.27639054224022 31.023354895765458 31.153749267509756 0 0 1
677 1 1 0 48.082918789457594 30.428687209974875 32.19875459900226 0 0 1
926 2 9 0 51.34242534886545 31.6865612158803 36.43985670450646 0 0 1
924 2 1 0 52.03507886236066 31.62757872425809 33.17368558656819 0 0 1
937 2 4 0 48.239192388191654 33.7705617473346 32.3251676535998 0 0 1
941 2 7 0 47.05881396839633 32.654931038942124 31.65003671259899 0 0 1
940 2 9 0 47.28768088145181 32.847120880343525 32.55909589654152 0 0 1
679 1 9 0 48.749836353561186 27.54316131972386 33.307577005245065 0 0 1
939 2 5 0 49.06430560668912 33.240724420826915 31.951451420021844 0 0 1
925 2 5 0 51.980190992398 33.25878315518447 35.20418435708392 0 0 1
921 2 8 0 52.05866619540358 30.245228977599403 34.346363453111024 0 0 1
680 1 7 0 49.33126822593017 56.963026736965006 34.00688021610978 0 -1 1
151 1 4 0 51.66521140080892 27.566352481375308 36.58208791601035 0 1 0
686 1 9 0 46.87456429068531 56.8126974014484 35.00687266532622 0 -1 1
927 2 7 0 51.41571029241848 30.76580961907248 36.22062838434106 0 0 1
922 2 3 0 52.31932207792609 31.369289832500325 34.197284674025006 0 0 1
674 1 8 0 47.98830835706002 28.860626612427232 31.504923025779103 0 0 1
681 1 8 0 46.5717872069622 29.44061961193585 33.543325803900224 0 0 1
154 1 9 0 51.022807421841065 28.620835599712827 35.97423557212524 0 1 0
2921 8 12 0 52.754175639562575 33.70527114854286 30.838275917689366 1 6 -2
2926 8 12 0 52.239334321388824 30.87740767073875 30.937217540028197 1 6 -2
932 2 5 0 50.68933510281579 34.16162892899763 33.62990036803376 0 0 1
934 2 7 0 50.74508938773764 35.4555840645017 35.10642282350313 0 0 1
695 1 8 0 45.132039198780475 31.53967910817711 37.51855585568489 0 0 1
946 2 5 0 47.192138399077784 33.21531918831634 59.68991188961061 0 0 0
2720 4 1 0 45.63778693644733 30.880507508241504 30.264743951647052 0 1 0
943 2 3 0 47.77188744853737 34.86798608213125 31.330262119247344 0 0 1
155 1 7 0 50.81911920108038 29.172835002751057 36.73952002561043 0 1 0
700 1 9 0 47.13587645015484 33.315359251297686 37.51161320703234 0 0 1
701 1 6 0 48.169480888944186 31.488513184137215 37.17700490078018 0 0 1
702 1 7 0 46.97939491659537 33.459067421686434 36.58794617267476 0 0 1
692 1 5 0 47.00688399500024 29.513574193115762 37.748891720016196 0 0 1
697 1 4 0 47.27645677057258 31.94109686964313 37.654676405098726 0 0 1
2917 8 12 0 50.47871286772726 33.22706015303227 30.403437504384584 1 6 -2
2914 8 16 0 51.39701111485479 31.22569866712609 30.316008861992216 1 6 -2
1940 3 4 0 59.20267093884296 29.55249384265502 32.29093021277173 0 1 0
1942 3 5 0 59.034031086020505 30.59868888147208 32.620370379271364 0 1 0
917 2 1 0 53.61467146693451 32.333117085553084 32.392334494322974 0 0 1
916 2 4 0 53.84354306704863 31.550717850598062 34.379048367279566 0 0 1
918 2 5 0 54.01553735771674 32.41499855226327 35.0934183719095 0 0 1
914 2 8 0 54.58200561142649 30.952155522853076 32.43312817928914 0 0 1
915 2 3 0 54.49132714045318 31.876172673960767 32.9842776379147 0 0 1
919 2 14 0 54.30758948001406 30.336202815773404 34.9605303004097 0 0 1
911 2 5 0 56.709282444715356 32.085103399209025 33.074447031758915 0 0 1
1946 3 3 0 57.774150395889315 28.952451148537016 32.068066584897025 0 1 0
1948 3 1 0 56.99511396847591 29.63814967280245 32.36201126305415 0 1 0
1945 3 8 0 57.53483673137747 28.932223330663057 31.006934867227148 0 1 0
2908 7 12 0 57.850320924139254 32.31891801742593 34.68948933040128 -4 -4 1
1947 3 4 0 57.51173462886513 27.542008354579533 32.77422980375288 0 1 0
2902 7 12 0 56.544906110508634 30.671844998074747 35.13644343733677 -4 -4 1
909 2 4 0 55.756550897995126 32.655949516034724 32.99156833256836 0 0 1
2904 7 11 0 57.498448089328605 33.05458620149094 35.481937439197004 -4 -4 1
907 2 8 0 54.94321866026054 33.25909406525005 31.021800766641835 0 0 1
908 2 3 0 55.7782993530796 33.50868880776355 31.71538847595179 0 0 1
912 2 14 0 55.67930580027389 33.59834847313431 34.029399380592146 0 0 1
2907 7 16 0 56.92389296317404 34.083923318024645 34.544696782381735 -4 -4 1
2909 7 12 0 58.442177708120596 33.46038918310243 35.9200709069792 -4 -4 1
146 1 5 0 53.98684763161862 28.03930740276302 35.57600130251336 0 1 0
2900 7 11 0 56.23699169636977 30.971673974452642 36.09823268078265 -4 -4 1
2901 7 11 0 56.55316543840552 32.37357048526292 36.49085212323757 -4 -4 1
2899 7 16 0 54.87580225037266 30.43594036548778 36.267066760361665 -4 -4 1
135 1 8 0 57.84292346083383 27.73516898363006 36.57362005085476 0 1 0
144 1 4 0 54.16437199417906 28.06225263100219 36.625622400946185 0 1 0
2906 7 12 0 55.669229015421436 33.05374175018476 36.42496951337462 -4 -4 1
2913 7 12 0 57.53985246938154 34.35992097147906 33.699814559849045 -4 -4 1
902 2 4 0 56.93088542711622 33.31488440767972 30.78541245899977 0 0 1
2911 7 12 0 54.11945881141877 31.033231223680918 36.83839158117608 -4 -4 1
904 2 5 0 57.8461333601993 33.261176789202 31.33557556215817 0 0 1
1949 3 5 0 57.92368617910334 27.693861555324393 33.77254129904367 0 1 0
1950 3 14 0 56.136584106290286 56.922341667446496 32.711223789468434 0 0 0
910 2 1 0 55.559225989802705 34.554951618506074 31.986900082910157 0 0 1
140 1 14 0 56.08609302732073 27.358200739280925 35.113857455371274 0 1 0
1941 3 1 0 59.1220180058019 29.915452588226056 59.843372011510155 0 1 -1
1952 3 8 0 58.72947900072526 56.62063861243351 31.01635292391652 0 0 0
147 1 14 0 55.057472412194706 29.1743960313983 36.91574339678574 0 1 0
2903 7 12 0 56.74327531291165 30.20863987370081 36.677983675220254 -4 -4 1
905 2 9 0 56.73427282144148 32.27477630156231 59.57790590717792 0 0 0
1233 2 5 0 30.32257086963191 35.186013341705504 37.04656318948766 1 0 0
2905 7 12 0 56.832400355843006 32.39190829603327 37.549904590163464 -4 -4 1
150 1 3 0 52.843496708245794 28.072937382820196 37.38720478379799 0 1 0
1236 2 8 0 32.745081188003205 36.196742455025124 35.942395955291346 1 0 0
2856 4 11 0 30.72265376142156 36.23108467719354 31.047348730157342 0 2 0
1241 2 14 0 31.248368460629194 37.36007518176905 34.46916308350368 1 0 0
2858 4 12 0 32.117655846014195 35.97812773505709 32.679823631608386 0 2 0
2863 4 12 0 31.982732823316823 37.9884452080799 31.149938108283184 0 2 0
2855 4 11 0 31.028852253952813 36.06063956164154 32.54357729306195 0 2 0
2951 10 12 0 36.425474683466305 37.725577427840115 32.55456509228815 0 0 1
1238 2 4 0 30.716762759087974 37.133480096151374 35.79993279796105 1 0 0
2946 10 11 0 37.21785738964691 37.66390477631664 31.832928247840897 0 0 1
2949 10 11 0 36.8754083746488 38.75494766471365 30.81652966865595 0 0 1
1 1 8 0 33.81293612001588 38.37594614729504 32.09819315454072 1 0 1
4 1 1 0 34.51173972829861 39.425806300089285 33.45739897578562 1 0 1
2 1 3 0 33.57172220785358 39.1222086158603 32.950892797610166 1 0 1
12 1 1 0 33.79297214816222 39.79940863371368 30.43624957375587 1 0 1
7 1 9 0 31.558684725347334 40.29182702753313 32.27831325282811 1 0 1
11 1 4 0 34.81516146958489 41.66867662985348 30.975658568356696 1 0 1
10 1 3 0 33.587516942934045 40.730078446529006 30.92124684034812 1 0 1
3 1 4 0 32.98582136300765 40.44244745565164 32.30655618025747 1 0 1
2958 10 12 0 36.19176444178286 40.22479710919422 32.43709632715972 0 0 1
2952 10 16 0 36.68486033344769 40.13249857101174 31.44438228692494 0 0 1
1237 2 3 0 31.830117747385152 36.41158686595815 36.601407193638714 1 0 0
5 1 2 0 33.009156847735994 38.6942851851255 33.78580020447917 1 0 1
2953 10 12 0 35.94053408643354 38.512173479021726 30.4059885171619 0 0 1
8 1 7 0 31.297268381995135 40.99372661408937 31.68388374157332 1 0 1
1252 2 4 0 32.55431571990918 41.57781956649586 37.41241069402404 1 0 0
6 1 5 0 33.27391099350245 41.260910277081614 33.01146198079483 1 0 1
1254 2 5 0 32.617328958445 42.04872094700241 36.41709241514521 1 0 0
1247 2 5 0 32.56663054731345 39.0652351883485 36.25506187142146 1 0 0
14 1 14 0 35.987983858767066 40.99108218935369 30.4800376384083 1 0 1
1245 2 4 0 31.497803267463848 39.52017995134118 36.370542782740195 1 0 0
2861 4 12 0 30.986417447251355 35.33280322797819 30.477460462397755 0 2 0
9 1 8 0 32.88141690755908 41.09174862638351 30.227454651203402 1 0 1
2945 10 11 0 37.1930108961308 36.32045658049249 31.177426863029183 0 0 1
2854 4 16 0 30.36355547540558 37.1857831647077 33.361461214451055 0 2 0
2866 4 12 0 30.339155945070175 38.1512894777257 32.84162321474464 0 2 0
2857 4 12 0 30.641792166009168 35.10159503904769 32.74657946315784 0 2 0
1239 2 1 0 32.2475288448634 37.064966222013105 37.430025266821126 1 0 0
752 2 17 0 34.00909914657834 37.021311280650764 58.9251969159979 0 0 0
1255 2 9 0 33.81473468020079 41.36350500606399 38.04116979591889 1 0 0
1045 2 9 0 36.33212573704036 39.594041251837055 37.33983745488021 0 0 0
1046 2 7 0 35.85044603241181 40.40996421911611 37.37829949527069 0 0 0
2859 4 11 0 31.363892429699955 37.447302109221226 30.409744380105504 0 2 0
2605 4 8 0 38.00873222066583 40.866856727941084 34.0145893553178 0 0 0
1244 2 3 0 30.372339158957853 38.4961822937744 36.41106032141092 1 0 0
1251 2 3 0 31.60437912845391 40.42492020579796 37.64113277024058 1 0 0
1256 2 7 0 33.850922985750124 42.21601526993902 38.48541786546875 1 0 0
2947 10 12 0 36.32290801877563 35.83920091246064 31.751322055255912 0 0 1
443 1 8 0 38.069385391943825 36.641579160499056 34.19830687709886 0 0 0
2950 10 12 0 38.201275863042795 37.885172795197334 32.2570134998092 0 0 1
2691 4 4 0 40.72877478421425 34.76667016704502 31.530530915674284 0 1 0
2956 10 12 0 38.39001049818567 34.679001932084695 32.295675200838005 0 0 1
2606 4 3 0 38.04300879589901 41.890255206313896 33.70545142188277 0 0 0
2702 4 7 0 44.98128532890337 35.62518993526115 32.66862544605087 0 1 0
2701 4 9 0 44.096422640157954 35.992462839994246 32.86751284197313 0 1 0
2699 4 1 0 42.66376614522581 35.19902224681051 30.60281376576136 0 1 0
2697 4 3 0 42.11993267611589 35.399329963690874 31.513794974258833 0 1 0
2610 4 14 0 37.97251333364065 40.59939831645035 31.63801226310032 0 0 0
446 1 1 0 38.60187670268854 36.57785297478108 35.864102615371564 0 0 0
2944 10 16 0 38.392306365294814 35.21994391664941 31.32113463901852 0 0 1
444 1 3 0 38.910869190903526 36.34231566678453 34.86059631992252 0 0 0
445 1 4 0 38.79332100080818 34.75935335146386 34.91022723906205 0 0 0
436 1 8 0 39.30830047335504 38.83324315212719 35.839625578644615 0 0 0
438 1 4 0 40.20832131951107 37.111018349886734 34.543512253156145 0 0 0
441 1 14 0 40.28356692381796 37.77664969615711 33.26633541222286 0 0 0
440 1 5 0 41.063789076602006 36.52545175674457 34.76821018494788 0 0 0
2694 4 14 0 39.73770648037423 35.809733718867456 31.19665725448365 0 1 0
437 1 3 0 40.267144322196444 38.2498139347157 35.619895701628046 0 0 0
3094 20 16 0 41.472743274696036 38.50615694669034 33.228069132382096 0 0 1
3101 20 12 0 39.61487356559783 38.51568695273225 30.88879983025503 0 0 1
3106 20 12 0 42.38093982001348 37.87918517561878 33.5859108105822 0 0 1
3096 20 11 0 40.609140005398196 38.88973491397753 30.68747044071443 0 0 1
2696 4 8 0 41.97581562781805 36.504043635658036 31.45740778161286 0 1 0
3097 20 12 0 42.5738329332649 38.7813015954971 31.336597746115107 0 0 1
433 1 5 0 42.30907722749479 38.9212203817721 35.48071374962262 0 0 0
3095 20 11 0 41.658718185943194 39.08781749961996 31.772445361894857 0 0 1
431 1 4 0 41.32557947111068 39.345198947674085 35.404014594918145 0 0 0
434 1 14 0 41.27358393971283 39.65787471902196 34.09565184095334 0 0 0
3098 20 12 0 41.80479504663201 40.128822987488 31.856950390301485 0 0 1
430 1 3 0 41.10644881927868 40.58179684473969 36.3617923095283 0 0 0
439 1 1 0 40.49666895090508 37.71645448121246 36.590606851555776 0 0 0
424 1 4 0 42.32888677237562 41.45352162340127 36.62017761184896 0 0 0
3100 20 12 0 40.18855175162686 39.92796249793137 30.641278073047946 0 0 1
614 1 1 0 44.34277188301266 41.21782832109057 32.304106048295246 0 0 1
429 1 8 0 40.26881627152896 41.167002889686 35.96742951796246 0 0 0
611 1 8 0 44.52632109850311 41.53496857670207 30.543298538017805 0 0 1
453 1 1 0 38.78150840135664 34.87665600859774 37.12390194448603 0 0 0
2607 4 4 0 38.1703890419405 41.910519200858886 32.201444336146814 0 0 0
428 1 7 0 43.58500934986043 41.05575669273253 35.21233971672459 0 0 0
426 1 5 0 43.03882181760396 40.90339765442975 37.28322864114772 0 0 0
612 1 3 0 45.0541045256828 41.39090218014066 31.438854064515976 0 0 1
2615 4 1 0 40.272236363210915 41.58021717007503 32.29697968351743 0 0 0
427 1 9 0 42.95564562642414 41.76332909970067 35.35780621404742 0 0 0
461 1 5 0 42.69641447885387 35.26208453612763 36.648775851723734 0 0 0
2062 3 9 0 44.90931046522537 36.394636297622974 36.02462028700711 0 0 0
616 1 9 0 45.684318003030505 39.13516704276212 31.570432234032907 0 0 1
2063 3 7 0 45.34894627530536 35.70131411393132 36.50350924440804 0 0 0
617 1 7 0 45.14727234420549 39.38840139407521 32.33736445975929 0 0 1
432 1 1 0 40.837491711512065 40.13608379089426 37.305770714972795 0 0 0
933 2 9 0 50.17583572903861 34.77602250525646 35.460975403749714 0 0 1
2061 3 5 0 45.135995466311755 38.35312447736051 35.433231098214485 0 0 0
945 2 1 0 46.88724184785632 35.433919865330616 31.763104864288763 0 0 1
935 2 8 0 48.435054615491225 35.487982426334646 33.66892172729617 0 0 1
2059 3 4 0 45.61875747876219 37.63795069871741 36.20156448801044 0 0 0
942 2 8 0 48.61366255697375 35.55531871582181 31.27747736473068 0 0 1
2060 3 1 0 47.034196571815144 37.06285353001596 34.72201697220689 0 0 0
2058 3 3 0 47.081526291564955 37.39151632584594 35.77375747647267 0 0 0
2055 3 9 0 49.2639490634069 38.10651118576701 36.3960959289273 0 0 0
2052 3 4 0 48.0613531676706 38.57619145830767 35.82554276895866 0 0 0
2053 3 1 0 47.461301229651056 39.839279765623274 34.100076880367155 0 0 0
2051 3 3 0 48.27174650128768 39.19019589562059 34.49332430460747 0 0 0
2050 3 8 0 48.50629651741413 38.39674187604744 33.78619065733404 0 0 0
2040 3 5 0 49.68207240083285 39.34572151179928 31.955146446392533 0 0 0
2038 3 4 0 50.66621832268946 39.10309290508491 32.44868487013726 0 0 0
2046 3 1 0 50.97951518252725 38.77131243665309 34.55706705219047 0 0 0
2041 3 9 0 51.679115308139004 39.7859801708717 31.69063306576421 0 0 0
2044 3 3 0 50.666893112283866 39.576249674421234 33.948112133766074 0 0 0
2043 3 8 0 51.52897771296748 40.20785792808129 34.090096339461205 0 0 0
2045 3 4 0 49.39163976038445 40.23561720407747 34.489415400490785 0 0 0
2048 3 14 0 49.070191687873134 41.23012004179782 33.511432625721696 0 0 0
2047 3 5 0 49.55546579178004 40.604837485758 35.517807841953626 0 0 0
2037 3 3 0 50.66541164416186 37.55008225343151 32.38056489191314 0 0 0
2036 3 8 0 50.33314106342877 37.168220459039425 33.40277849828379 0 0 0
2039 3 1 0 49.961813930562236 37.15214193001105 31.727959321876995 0 0 0
2054 3 5 0 47.71134328029031 39.43126831246585 36.45720983437959 0 0 0
2031 3 4 0 51.934879891988004 36.848120276809496 31.841227158290113 0 0 0
2057 3 8 0 47.458580370203826 36.55649921951114 36.31742124169168 0 0 0
2034 3 14 0 51.64669165614555 35.99632064418933 30.764473845318566 0 0 0
615 1 5 0 47.02348390106733 40.63057100415472 31.84298399526448 0 0 1
613 1 4 0 46.14592748494972 40.39280164831123 31.20112740250509 0 0 1
2029 3 8 0 51.95245704466028 35.803497953649 33.777100732413096 0 0 0
2042 3 7 0 51.296761030858 40.18105694761063 30.892730734973462 0 0 0
2056 3 7 0 49.972642849668034 38.67328308424095 36.08343554536854 0 0 0
2033 3 5 0 52.54434475502468 37.751131377133916 31.60164749929382 0 0 0
2129 4 8 0 51.53065705610044 37.07575420505063 37.08992746443445 0 0 0
622 1 5 0 48.33406906602088 39.65698371304512 30.341622680004352 0 0 1
607 1 1 0 46.43006258493605 41.89153656298793 33.46703162760521 0 0 1
608 1 5 0 46.57535098060619 42.85679679781982 31.08102088013641 0 0 1
2819 1 12 0 50.64735237589869 42.345063905982705 35.6831846908421 -5 -5 2
2128 4 7 0 50.38702997649369 34.40048235460963 38.42727438749237 0 0 0
2136 4 8 0 51.7596714594639 39.194800733291736 37.3581456141568 0 0 0
2130 4 3 0 52.21173850750597 36.62037269722544 37.76849613109117 0 0 0
2030 3 3 0 52.667485919785435 36.00517660652624 32.930320463925845 0 0 0
2032 3 1 0 52.89336925693925 34.97291116363617 32.715129739741364 0 0 0
1248 2 9 0 31.34720329457646 40.34603977679538 35.25080575731369 1 0 0
1249 2 7 0 30.635955862306595 40.90377080306742 35.56421706726058 1 0 0
2132 4 1 0 52.850364592013634 36.05722547877558 37.13435482215006 0 0 0
2028 3 7 0 53.434954510033876 38.10865941268988 34.74078999636073 0 0 0
2139 4 1 0 53.00268383922723 38.58075256411786 36.183171868419294 0 0 0
1240 2 5 0 59.62090575105978 36.50088173142697 35.624936578101796 0 0 0
2860 4 12 0 59.310099791247666 36.38649999836729 30.886714104606913 -1 2 0
2020 3 14 0 56.612875753119056 35.3181293948863 35.28401986516076 0 0 0
2025 3 1 0 54.12592946415632 35.17947046350008 34.72892482282413 0 0 0
2013 3 14 0 58.726253942414935 36.746203496888874 33.64389400698931 0 0 0
2027 3 9 0 53.41397297152629 38.117734764349194 33.75910490257899 0 0 0
2024 3 4 0 53.84776086369378 36.877579764374474 33.34625571661954 0 0 0
2026 3 5 0 54.52271804500636 36.93213550224214 32.496291863451916 0 0 0
2019 3 5 0 56.30353908630614 35.93510121708059 33.361898956532116 0 0 0
2017 3 4 0 56.05488473916127 36.24381947888847 34.38674029242148 0 0 0
2010 3 4 0 57.86331383855841 37.90532943611268 33.64340897583999 0 0 0
2011 3 1 0 56.88167076219024 37.37588921901702 31.838608336362064 0 0 0
2016 3 3 0 56.69166872303818 37.732500760174666 34.57838361485112 0 0 0
2009 3 3 0 57.430178197799954 38.18558953256971 32.221228379259856 0 0 0
2015 3 8 0 55.96245681679768 38.55757504058678 34.68449565523059 0 0 0
2023 3 3 0 54.53513225290772 36.16141698572937 34.47426717589103 0 0 0
2008 3 8 0 58.37237224981527 38.25258426466299 31.579071868758685 0 0 0
2018 3 1 0 57.14614465874611 37.75458926317249 35.586529294163704 0 0 0
2022 3 8 0 54.207811138477226 36.76031776390613 35.33600915558074 0 0 0
2012 3 5 0 58.434845738071786 38.75979545060707 33.959855911973555 0 0 0
2005 3 5 0 56.333309515964245 39.8788168898045 32.99140173976279 0 0 0
2003 3 4 0 56.726291253563886 39.593169496002616 32.03074859727998 0 0 0
2001 3 8 0 58.60105991412472 40.37200172769916 31.429145913796177 0 0 0
2002 3 3 0 57.57449241023994 40.69065397201422 31.603240685482067 0 0 0
2006 3 9 0 55.667239418776575 39.33254031540342 31.091468111222333 0 0 0
2007 3 7 0 55.427849669624976 38.383832504852705 31.09663820675685 0 0 0
2004 3 1 0 57.227374582224556 40.878886509220905 30.603093206625825 0 0 0
2146 4 1 0 55.407634950470914 39.55735308300062 36.82511329757822 0 0 0
1246 2 1 0 59.129368582192114 38.91558156109292 35.93901738963311 0 0 0
2143 4 8 0 54.43342993381484 40.63188165444353 35.81833929548749 0 0 0
2144 4 3 0 54.76763768982576 40.39945057665577 36.814009554754634 0 0 0
2149 4 7 0 57.053056189736594 40.534295678410615 38.02799536575431 0 0 0
1996 3 4 0 57.489295016450214 41.92016123064154 32.60208622014211 0 0 0
2148 4 9 0 56.9823978440872 41.228576950718065 37.37129442530054 0 0 0
2145 4 4 0 55.59667392473963 41.521076032714035 37.489548715806166 0 0 0
2137 4 3 0 52.76907735858692 38.89011423785908 37.286056472392154 0 0 0
2138 4 4 0 53.51516016456005 40.1489129963461 37.64041494640348 0 0 0
2604 4 7 0 37.14255428186174 41.4885567221514 35.749647397945104 0 0 0
2602 4 5 0 35.95445101381063 42.06974692050686 33.97728205584312 0 0 0
2603 4 9 0 37.03213523196041 42.43567406541122 35.61073851992642 0 0 0
13 1 5 0 34.87326251353974 42.05525585315879 32.00432349459046 1 0 1
22 1 7 0 31.94251325272376 44.14107233297129 31.654470216828745 1 0 1
2609 4 5 0 37.36902881395984 42.62060650515564 31.89154202157888 0 0 0
2596 4 9 0 34.07354431984523 44.27206372861144 33.80641822283034 0 0 0
2597 4 7 0 34.17848868000772 44.743721283642635 32.97525646703501 0 0 0
2593 4 4 0 35.20422401955422 44.52761950616673 34.61064203076386 0 0 0
2599 4 3 0 36.57429577007598 44.13915162822309 33.99716717515585 0 0 0
2595 4 5 0 35.10728311457741 43.83492305505578 35.482209873294224 0 0 0
2600 4 4 0 36.84754617148196 42.62664062367452 34.240345795267416 0 0 0
2591 4 8 0 34.104845838732494 46.094206523095195 35.38647617464673 0 0 0
2587 4 1 0 34.99255544399979 48.514285877094586 35.33194959074976 0 0 0
2585 4 3 0 34.65442369060854 48.31718053777199 34.33703043890138 0 0 0
2592 4 3 0 35.16161865041685 46.02043133673348 35.06703608371003 0 0 0
2586 4 4 0 35.37488153291872 47.073329818353166 33.89374635622458 0 0 0