LAMMPS data file via write_data, version 23 Jun 2022, timestep = 1204999

3006 atoms
18 atom types
3053 bonds
16 bond types
5794 angles
31 angle types

29.8174203697059 60.28957963029227 xlo xhi
26.902920369705896 57.37507963029241 ylo yhi
29.786422369705903 60.25858163029228 zlo zhi

Masses

1 1.00794
2 1.00794
3 12.0107
4 12.0107
5 1.00794
6 1.00794
7 1.00794
8 1.00794
9 15.9994
10 12.0107
11 12.0107
12 1.00794
13 15.9994
14 15.9994
15 12.0107
16 12.0107
17 1.00794
18 15.9994

Pair Coeffs # lj/cut

1 0.038 2.44997
2 0.038 2.44997
3 0.039 3.87541
4 0.039 3.87541
5 0.038 2.44997
6 0.038 2.44997
7 0 0
8 0.038 2.44997
9 0.228 2.85978
10 0.148 3.61705
11 0.039 3.87541
12 0.038 2.44997
13 0.228 2.85978
14 0.228 2.85978
15 0.148 3.61705
16 0.148 3.61705
17 0 0
18 0.228 2.85978

Bond Coeffs # harmonic

1 340.618 1.105
2 340.618 1.105
3 322.716 1.526
4 340.618 1.105
5 340.618 1.105
6 340.618 1.105
7 384 1.42
8 540.634 0.96
9 283.092 1.52
10 340.618 1.105
11 615.322 1.23
12 322.716 1.526
13 340.618 1.105
14 384 1.42
15 540.634 0.96
16 384 1.42

Angle Coeffs # harmonic

1 39.5 106.4
2 44.4 110
3 39.5 106.4
4 44.4 110
5 39.5 106.4
6 46.6 110.5
7 44.4 110
8 44.4 110
9 70 109.5
10 46.6 110.5
11 44.4 110
12 58.5 106
13 39.5 106.4
14 57 109.5
15 57 109.5
16 46.6 110.5
17 45 109.5
18 50 120
19 68 120
20 46.6 110.5
21 44.4 110
22 55 120
23 39.5 106.4
24 70 109.5
25 57 109.5
26 70 109.5
27 57 109.5
28 80 109.5
29 70 106
30 80 109.5
31 58.5 106

Atoms # full

2974 12 15 0 32.4698 28.0728 33.8647 1 1 0
2986 12 12 0 33.1728 28.5846 33.1918 1 1 0
2975 12 11 0 32.1014 57.0942 33.4016 1 0 0
2985 12 18 0 31.9653 28.6472 34.8722 1 1 0
2840 3 11 0 34.5886 31.3765 33.2556 0 2 2
2842 3 12 0 34.6386 30.3486 33.5917 0 2 2
2843 3 12 0 34.8058 31.9915 34.1762 0 2 2
2905 7 12 0 30.3487 32.0677 32.1672 -3 -4 1
2960 11 11 0 35.5098 28.2431 35.6992 -9 -11 10
2851 3 12 0 32.685 30.8858 32.2902 0 2 2
2963 11 12 0 34.5703 28.721 35.4289 -9 -11 10
1910 3 8 0 34.1886 28.9684 30.7611 1 1 0
2844 3 11 0 36.689 32.3599 32.3836 0 2 2
2848 3 12 0 36.5172 33.0705 33.2597 0 2 2
2978 12 12 0 32.9839 56.7496 32.7852 1 0 0
2981 12 12 0 30.141 27.2861 33.1903 1 1 0
1915 3 14 0 33.7174 30.6389 59.171 1 1 -1
1920 3 1 0 31.8445 29.3406 30.6657 1 1 0
2847 3 16 0 37.7594 31.3546 32.7253 0 2 2
2549 4 8 0 40.1621 27.9047 34.4089 0 1 0
1509 3 14 0 40.1854 30.9614 34.3694 0 0 0
2556 4 8 0 38.9327 27.2356 30.6819 0 1 0
2554 4 14 0 40.2817 28.5547 32.1992 0 1 0
2550 4 3 0 39.8989 26.9743 33.9533 0 1 0
2551 4 4 0 40.1306 27.1599 32.4259 0 1 0
1512 3 3 0 40.1186 32.9167 35.6378 0 0 0
2966 11 12 0 37.5074 28.9946 36.0082 -9 -11 10
2703 4 8 0 42.2273 30.4531 31.0242 0 1 0
2853 3 12 0 37.685 30.8719 33.7772 0 2 2
1511 3 8 0 39.5924 33.237 34.7107 0 0 0
2559 4 1 0 37.9338 27.1814 32.1859 0 1 0
2965 11 12 0 36.1694 30.2252 36.1287 -9 -11 10
2698 4 4 0 42.464 32.5335 30.5948 0 1 0
2704 4 3 0 42.8081 31.2299 31.4093 0 1 0
1505 3 3 0 41.9863 31.3036 35.7599 0 0 0
1504 3 8 0 42.591 31.5929 34.8753 0 0 0
2710 4 8 0 43.5944 28.8931 31.9215 0 1 0
1497 3 8 0 42.645 28.6213 34.3573 0 0 0
1498 3 3 0 43.2175 29.1788 35.0816 0 0 0
1495 3 14 0 44.5071 27.1953 34.6388 0 0 0
2713 4 1 0 45.3733 28.9484 31.6407 0 1 0
2711 4 3 0 44.363 29.2852 31.2761 0 1 0
2705 4 4 0 44.3181 30.8352 31.3529 0 1 0
2715 4 9 0 43.0707 27.8331 29.9155 0 1 0
1490 3 8 0 46.2865 28.8285 34.8502 0 0 0
2706 4 1 0 42.6037 31.3826 32.4589 0 1 0
2708 4 9 0 45.04 31.3289 32.3845 0 1 0
681 1 8 0 48.6336 31.2964 32.8456 0 0 1
2717 4 8 0 45.8294 27.4405 60.0803 0 1 -1
2712 4 4 0 44.1897 28.7315 29.9041 0 1 0
2709 4 7 0 45.2151 32.207 32.1105 0 1 0
2707 4 5 0 44.7562 31.3073 30.4337 0 1 0
679 1 9 0 47.7998 33.298 31.6996 0 0 1
942 2 8 0 47.7309 31.52 35.4669 0 0 1
688 1 8 0 48.3375 28.4878 31.7946 0 0 1
691 1 1 0 49.8593 29.2251 32.6422 0 0 1
682 1 3 0 49.2249 31.4453 31.951 0 0 1
684 1 1 0 50.3213 31.3111 32.2445 0 0 1
676 1 4 0 49.032 32.7413 31.2051 0 0 1
943 2 3 0 48.0902 32.4938 35.4381 0 0 1
2716 4 7 0 42.7345 27.6789 59.5175 0 1 -1
1492 3 4 0 44.3327 28.246 35.5893 0 0 0
1491 3 3 0 45.6978 28.8931 35.742 0 0 0
1493 3 1 0 45.5196 29.9757 36.0276 0 0 0
1500 3 1 0 43.8093 29.898 34.4852 0 0 0
683 1 4 0 48.9617 30.3052 30.9604 0 0 1
685 1 5 0 49.5237 30.4372 30.0085 0 0 1
689 1 3 0 49.3055 28.9779 31.6739 0 0 1
690 1 4 0 50.2156 28.1505 30.7741 0 0 1
692 1 5 0 51.0322 28.737 30.3453 0 0 1
931 2 1 0 51.8275 29.447 35.0859 0 0 1
929 2 3 0 52.5257 30.2701 35.4553 0 0 1
698 1 1 0 50.7487 27.2929 32.7326 0 0 1
923 2 4 0 53.6492 30.5971 34.4822 0 0 1
924 2 1 0 52.1802 31.2511 33.1483 0 0 1
922 2 3 0 53.1986 30.7975 33.126 0 0 1
930 2 4 0 51.6329 31.4838 35.9138 0 0 1
938 2 1 0 50.0249 31.514 34.4279 0 0 1
917 2 1 0 52.9685 31.7563 30.5692 0 0 1
915 2 3 0 53.9342 31.3684 30.8609 0 0 1
932 2 5 0 52.1167 32.3133 35.4611 0 0 1
677 1 1 0 50.9931 33.5258 31.9916 0 0 1
928 2 8 0 52.9416 29.7673 36.3633 0 0 1
936 2 3 0 50.1795 31.432 35.4684 0 0 1
935 2 8 0 49.7104 30.4901 35.6995 0 0 1
918 2 5 0 53.743 32.83 32.4443 0 0 1
916 2 4 0 54.0958 31.7978 32.3403 0 0 1
926 2 9 0 54.5633 29.4999 34.5665 0 0 1
927 2 7 0 54.0764 28.7952 35.0073 0 0 1
925 2 5 0 54.1294 31.5029 34.8696 0 0 1
914 2 8 0 53.787 30.2199 30.6759 0 0 1
176 1 7 0 54.556 57.3478 35.9158 0 0 0
672 1 14 0 51.6859 33.8388 60.1742 0 0 0
921 2 8 0 52.9587 29.8203 32.669 0 0 1
2899 7 16 0 59.5675 32.6247 35.0665 -4 -4 1
2903 7 12 0 59.8253 30.9479 33.9105 -4 -4 1
2902 7 12 0 58.1967 31.7098 33.5616 -4 -4 1
2900 7 11 0 59.2869 31.9054 33.7609 -4 -4 1
1936 3 9 0 56.4269 29.1466 31.9774 0 1 0
1937 3 7 0 56.9967 29.9393 31.955 0 1 0
147 1 14 0 57.1788 29.8535 35.1356 0 1 0
919 2 14 0 55.425 31.5003 32.6502 0 0 1
2908 7 12 0 58.2031 31.8809 31.5426 -4 -4 1
1933 3 4 0 57.3445 28.2653 31.3565 0 1 0
2901 7 11 0 59.9469 32.5674 32.5279 -4 -4 1
2904 7 11 0 58.962 32.6392 31.3951 -4 -4 1
1935 3 5 0 58.327 28.3157 31.7194 0 1 0
144 1 4 0 57.4302 29.2547 36.3701 0 1 0
2909 7 12 0 59.413 32.3156 30.4455 -4 -4 1
1928 3 5 0 59.1306 27.4061 60.1255 0 1 -1
2841 3 11 0 35.3864 31.6215 32.0322 0 2 2
2846 3 12 0 35.5408 30.6977 31.3935 0 2 2
2839 3 15 0 33.1049 31.56 33.0537 0 2 2
2845 3 12 0 34.851 32.2938 31.2844 0 2 2
2850 3 18 0 32.4047 32.0438 33.9267 0 2 2
2856 4 11 0 30.9427 36.2223 31.2305 0 2 0
2858 4 12 0 31.2526 36.3318 33.3975 0 2 0
2855 4 11 0 30.5656 36.6838 32.6043 0 2 0
2857 4 12 0 60.0258 36.2722 32.9123 -1 2 0
2854 4 16 0 30.5447 38.2313 32.5741 0 2 0
1241 2 14 0 31.3203 37.3304 35.7939 1 0 0
2859 4 11 0 32.0273 35.2111 31.1263 0 2 0
2863 4 12 0 32.0462 34.5443 31.9871 0 2 0
450 1 8 0 34.2851 36.2716 35.2634 0 0 0
1240 2 5 0 59.877 37.7794 36.3199 0 0 0
2958 10 12 0 33.9002 37.6195 60.2185 0 0 0
2952 10 15 0 34.7226 37.7093 30.5296 0 0 1
2864 4 12 0 33.0154 35.6704 31.071 0 2 0
2951 10 12 0 35.5105 35.2366 30.7562 0 0 1
451 1 3 0 35.2048 36.9403 35.2299 0 0 0
453 1 1 0 35.0097 37.7285 34.4764 0 0 0
2866 4 12 0 60.0159 38.6579 32.7576 -1 2 0
2860 4 12 0 31.3772 37.1226 30.8289 0 2 0
2849 3 12 0 36.9135 32.9144 31.4902 0 2 2
2700 4 5 0 41.56 33.0861 31.0566 0 1 0
449 1 17 0 36.35 34.8115 33.233 0 0 0
443 1 8 0 37.4853 36.6143 32.8519 0 0 0
446 1 1 0 37.0395 37.8825 33.8826 0 0 0
444 1 3 0 37.4193 36.8346 33.8909 0 0 0
438 1 4 0 38.7354 36.935 34.5383 0 0 0
441 1 14 0 39.3869 35.6715 34.3327 0 0 0
437 1 3 0 39.5873 37.9962 33.8659 0 0 0
439 1 1 0 39.0074 38.905 33.5135 0 0 0
445 1 4 0 36.2943 36.05 34.6264 0 0 0
436 1 8 0 39.997 37.5171 32.889 0 0 0
434 1 14 0 41.8139 37.202 34.8661 0 0 0
440 1 5 0 38.7064 37.1703 35.6253 0 0 0
448 1 14 0 35.5913 35.1718 33.6803 0 0 0
2954 10 12 0 36.9833 37.5804 30.7968 0 0 1
447 1 5 0 36.6948 35.3675 35.3744 0 0 0
3106 20 12 0 39.4383 34.8982 30.8284 0 0 1
1514 3 1 0 41.0287 33.5378 35.6984 0 0 0
2957 10 18 0 34.3944 37.8285 31.7376 0 0 1
2950 10 12 0 37.1487 35.3561 30.4103 0 0 1
2946 10 11 0 36.0842 35.7347 30.031 0 0 1
3094 20 16 0 40.3492 35.4956 31.0111 0 0 1
952 2 1 0 46.0357 33.0562 34.134 0 0 1
956 2 8 0 43.4486 35.1983 34.0043 0 0 1
959 2 1 0 44.3546 33.8635 33.3219 0 0 1
957 2 3 0 44.4297 34.8321 33.9072 0 0 1
966 2 1 0 44.0583 35.7786 31.2967 0 0 1
951 2 4 0 44.8887 34.5171 35.2529 0 0 1
962 2 7 0 44.6047 37.2255 34.3488 0 0 1
960 2 5 0 46.2267 35.4567 32.9777 0 0 1
958 2 4 0 45.2825 35.8965 33.1281 0 0 1
961 2 9 0 45.4522 37.006 33.9984 0 0 1
964 2 3 0 44.8469 36.4181 31.8043 0 0 1
963 2 8 0 44.3334 37.3918 32.069 0 0 1
950 2 3 0 45.7805 33.2424 35.1747 0 0 1
953 2 5 0 45.45 35.3571 35.636 0 0 1
954 2 9 0 43.8068 34.2806 36.0232 0 0 1
2046 3 1 0 47.9324 38.4341 34.6954 0 0 0
955 2 7 0 43.9128 34.8507 36.7994 0 0 1
965 2 4 0 45.9148 36.9056 30.7338 0 0 1
967 2 5 0 46.5044 37.739 31.2083 0 0 1
944 2 4 0 46.981 33.2786 36.0662 0 0 1
946 2 5 0 47.4474 34.3319 36.1313 0 0 1
970 2 8 0 44.2432 37.7649 60.2325 0 0 0
674 1 8 0 49.4803 34.6053 32.0718 0 0 1
680 1 7 0 47.8928 34.2311 31.535 0 0 1
2701 4 9 0 43.5971 33.3239 30.548 0 1 0
968 2 9 0 46.7526 35.7889 30.4274 0 0 1
2044 3 3 0 48.2466 38.8472 35.6548 0 0 0
945 2 1 0 48.1783 32.7094 34.3996 0 0 1
2032 3 1 0 51.8975 35.7073 33.6338 0 0 0
2031 3 4 0 51.6431 37.7967 34.3049 0 0 0
2030 3 3 0 52.0436 36.3147 34.5771 0 0 0
2037 3 3 0 50.0871 38.0572 34.2606 0 0 0
675 1 3 0 50.0803 33.8518 31.4573 0 0 1
2036 3 8 0 49.5527 37.0495 34.2147 0 0 0
2024 3 4 0 53.4391 36.2597 35.1765 0 0 0
2039 3 1 0 49.7586 38.7318 33.4724 0 0 0
667 1 8 0 51.0192 36.3253 31.3928 0 0 1
2025 3 1 0 53.6988 34.7021 33.7895 0 0 0
2029 3 8 0 51.3965 35.7298 35.237 0 0 0
2038 3 4 0 49.6319 38.5229 35.6487 0 0 0
2034 3 14 0 52.2006 38.1931 33.0779 0 0 0
2033 3 5 0 52.1073 38.3652 35.1035 0 0 0
668 1 3 0 51.0411 35.9445 30.3712 0 0 1
2023 3 3 0 54.0456 34.8915 34.7714 0 0 0
941 2 7 0 50.4045 33.9699 36.9858 0 0 1
666 1 7 0 51.5338 38.2164 30.1486 0 0 1
669 1 4 0 50.5127 34.5409 30.1456 0 0 1
665 1 9 0 50.6255 38.2253 29.8515 0 0 1
670 1 1 0 52.0918 35.9663 30.1318 0 0 1
662 1 4 0 50.3389 36.8974 59.9049 0 0 0
2920 8 12 0 55.8123 35.6552 31.5919 1 6 -2
2911 7 12 0 59.8978 33.7063 35.125 -4 -4 1
2919 8 11 0 55.3796 37.7208 31.6084 1 6 -2
2906 7 12 0 60.1443 33.6115 32.7305 -4 -4 1
2020 3 14 0 55.8964 33.7658 34.0027 0 0 0
2019 3 5 0 55.8991 35.766 34.1083 0 0 0
2017 3 4 0 55.5681 34.9158 34.7416 0 0 0
2013 3 14 0 58.462 35.6928 35.3477 0 0 0
2907 7 16 0 58.3763 34.0053 31.199 -4 -4 1
2922 8 16 0 56.7191 38.2032 31.9832 1 6 -2
2011 3 1 0 56.2226 37.6112 35.1772 0 0 0
2008 3 8 0 57.8261 37.9908 35.5643 0 0 0
2928 8 12 0 56.9204 38.4472 33.0828 1 6 -2
2016 3 3 0 56.2478 34.9316 36.0964 0 0 0
2010 3 4 0 57.404 35.9993 36.2515 0 0 0
2009 3 3 0 56.9426 37.4628 35.9921 0 0 0
912 2 14 0 54.9455 33.368 30.0197 0 0 1
2918 8 12 0 56.1488 35.2829 59.8259 1 6 -3
2607 4 4 0 34.8944 41.482 32.4516 0 0 0
2609 4 5 0 34.8122 41.1834 31.3566 0 0 0
2610 4 14 0 34.1593 40.4751 33.1299 0 0 0
2606 4 3 0 34.2233 42.8549 32.4785 0 0 0
2611 4 17 0 34.6392 40.4947 33.9605 0 0 0
2605 4 8 0 33.2849 42.792 32.8818 0 0 0
2608 4 1 0 34.8654 43.5731 33.1129 0 0 0
1254 2 5 0 31.3117 42.4922 35.036 1 0 0
2602 4 5 0 35.0007 43.3998 30.5733 0 0 0
2600 4 4 0 33.9639 43.4553 31.1154 0 0 0
1247 2 5 0 32.1008 39.5677 36.1703 1 0 0
1255 2 9 0 33.2399 42.0129 35.7873 1 0 0
1248 2 9 0 30.1759 40.0645 35.5359 1 0 0
1256 2 7 0 33.5226 42.7543 35.2779 1 0 0
2603 4 9 0 33.0342 42.6171 30.4004 0 0 0
2613 4 3 0 36.3122 41.553 33.0436 0 0 0
2612 4 8 0 36.654 40.5816 33.4568 0 0 0
2615 4 1 0 36.4415 42.2339 33.9178 0 0 0
2793 4 7 0 31.1439 44.2108 32.6743 1 0 0
2792 4 9 0 30.9311 43.7428 31.8759 1 0 0
1707 3 8 0 36.7878 45.0032 35.1386 0 0 0
1706 3 7 0 36.4633 43.2057 36.6749 0 0 0
1267 2 1 0 32.046 44.9616 34.6366 1 0 0
2604 4 7 0 32.5054 43.3166 30.0002 0 0 0
431 1 4 0 40.8442 38.2695 34.7108 0 0 0
433 1 5 0 40.5617 38.5419 35.7432 0 0 0
2616 4 5 0 37.0131 41.7106 31.0523 0 0 0
2614 4 4 0 37.377 41.9948 32.0487 0 0 0
2618 4 7 0 38.623 40.9429 33.1759 0 0 0
429 1 8 0 42.5096 39.209 33.62 0 0 0
430 1 3 0 41.544 39.468 34.1391 0 0 0
2617 4 9 0 38.5995 41.2566 32.24 0 0 0
589 1 7 0 40.8845 39.7538 31.0259 0 0 1
432 1 1 0 40.8813 39.9571 33.4102 0 0 0
2625 4 7 0 39.6847 43.4239 34.5278 0 0 0
2624 4 9 0 38.8078 43.6601 34.2009 0 0 0
422 1 8 0 41.3188 42.1478 34.121 0 0 0
424 1 4 0 42.0496 40.4215 35.1941 0 0 0
423 1 3 0 41.1491 41.6755 35.0973 0 0 0
2620 4 3 0 37.7589 43.5047 32.0285 0 0 0
2619 4 8 0 36.8829 44.0072 32.3449 0 0 0
2623 4 5 0 39.8939 43.3495 32.5087 0 0 0
2621 4 4 0 38.9788 43.9125 32.8437 0 0 0
460 1 1 0 35.726 39.3604 35.4288 0 0 0
2622 4 1 0 37.8651 43.9448 30.9984 0 0 0
2630 4 5 0 41.4185 44.5494 32.4409 0 0 0
425 1 1 0 40.1017 41.277 35.0264 0 0 0
2627 4 3 0 39.407 45.334 32.7214 0 0 0
2628 4 4 0 40.8409 45.4518 32.337 0 0 0
2626 4 8 0 39.2232 45.7682 33.7428 0 0 0
2629 4 1 0 38.7664 45.8646 31.9593 0 0 0
582 1 7 0 39.8594 41.6445 60.2266 0 0 0
583 1 8 0 41.4088 42.6625 60.1808 0 0 0
588 1 9 0 41.0175 40.6623 31.3023 0 0 1
585 1 4 0 42.2782 40.9648 30.6744 0 0 1
590 1 8 0 42.8947 41.5681 32.5628 0 0 1
593 1 1 0 42.9521 42.9506 31.3661 0 0 1
596 1 7 0 45.5072 39.9855 31.5385 0 0 1
591 1 3 0 43.1477 41.8849 31.5426 0 0 1
595 1 9 0 44.7737 40.3082 32.08 0 0 1
592 1 4 0 44.644 41.6119 31.473 0 0 1
598 1 3 0 45.4464 42.7443 32.1447 0 0 1
600 1 1 0 44.7125 43.3925 32.744 0 0 1
597 1 8 0 46.0475 42.2881 32.9272 0 0 1
594 1 5 0 44.903 41.5053 30.4105 0 0 1
599 1 4 0 46.118 43.6271 31.0516 0 0 1
601 1 5 0 45.549 43.6207 30.119 0 0 1
605 1 3 0 47.5101 42.9635 30.8291 0 0 1
427 1 9 0 43.3406 40.7896 34.8026 0 0 0
604 1 8 0 47.6031 42.0084 31.4232 0 0 1
428 1 7 0 43.3097 41.5444 34.1966 0 0 0
2639 4 7 0 43.4353 44.8487 60.2486 0 0 -1
602 1 14 0 46.3035 44.9868 31.52 0 0 1
2638 4 9 0 42.5999 45.3105 60.0426 0 0 -1
2050 3 8 0 45.8774 39.6556 35.8004 0 0 0
2045 3 4 0 47.9449 40.3918 35.7198 0 0 0
2053 3 1 0 46.0151 41.4016 35.53 0 0 0
2051 3 3 0 46.4461 40.5482 36.0648 0 0 0
2816 1 12 0 48.8778 43.0486 35.9319 -5 -5 2
2048 3 14 0 48.2788 41.0034 34.5215 0 0 0
607 1 1 0 48.3259 43.6952 31.1439 0 0 1
2814 1 11 0 47.9229 44.1622 34.5172 -5 -5 2
610 1 7 0 49.2033 41.74 29.8821 0 0 1
2812 1 12 0 49.9091 42.7918 33.746 -5 -5 2
2810 1 11 0 50.3518 43.5606 34.4145 -5 -5 2
1397 2 8 0 53.403 43.0423 30.3354 0 0 1
1402 2 14 0 51.3651 42.0728 31.3042 0 0 1
1401 2 5 0 52.366 40.2424 30.893 0 0 1
1399 2 4 0 52.6077 41.3372 31.1036 0 0 1
1400 2 1 0 54.5438 41.6313 30.3184 0 0 1
1398 2 3 0 53.5277 42.0554 30.1407 0 0 1
1797 3 7 0 54.7535 45.8679 30.9538 0 0 0
1403 2 6 0 53.2066 41.3333 32.051 0 0 1
2813 1 12 0 50.6759 44.4741 33.8788 -5 -5 2
1801 3 1 0 52.1242 45.3744 32.2547 0 0 0
2811 1 11 0 49.1416 43.8983 35.3214 -5 -5 2
1845 3 14 0 54.466 45.0238 37.0505 0 0 0
2923 8 12 0 54.8725 37.5999 32.6061 1 6 -2
1249 2 7 0 30.3042 39.3551 34.921 1 0 0
2807 4 6 0 55.3816 42.6148 34.2232 0 0 0
2806 4 14 0 55.9082 40.7969 33.3021 0 0 0
2805 4 5 0 55.9812 41.3607 35.3199 0 0 0
2804 4 1 0 58.2354 41.7473 34.5405 0 0 0
2803 4 4 0 56.1349 41.8096 34.2843 0 0 0
2802 4 3 0 57.4925 42.4078 34.0858 0 0 0
2801 4 8 0 57.7021 43.3364 34.5933 0 0 0
2796 4 4 0 57.8234 42.7536 32.6219 0 0 0
2798 4 5 0 57.2692 42.0515 31.9681 0 0 0
2794 4 8 0 59.8654 42.4085 33.4663 0 0 0
2789 4 4 0 59.9573 43.7543 31.8069 0 0 0
2799 4 9 0 57.3229 44.047 32.3878 0 0 0
2795 4 3 0 59.3278 42.5773 32.4532 0 0 0
2791 4 5 0 59.6169 44.6427 32.3661 0 0 0
1853 3 7 0 58.4162 45.5975 33.9441 0 0 0
2800 4 7 0 58.1125 44.5458 32.1333 0 0 0
2797 4 1 0 59.5594 41.5841 31.9582 0 0 0
2784 4 5 0 59.3955 46.0218 30.3061 0 0 0
2788 4 3 0 59.5193 43.8206 30.3322 0 0 0
2782 4 4 0 59.514 45.1581 60.078 0 0 -1
2599 4 3 0 33.5627 44.9022 31.0915 0 0 0
1264 2 8 0 30.3234 45.161 34.4302 1 0 0
2595 4 5 0 35.4588 45.5082 31.6903 0 0 0
1272 2 3 0 32.3814 47.3987 34.4187 1 0 0
1273 2 4 0 32.6005 48.8234 34.8383 1 0 0
1279 2 3 0 32.5572 49.7341 33.6869 1 0 0
1278 2 8 0 31.57 49.5846 33.1489 1 0 0
1271 2 8 0 32.134 47.3978 33.37 1 0 0
1281 2 1 0 33.2961 49.3938 32.9025 1 0 0
2596 4 9 0 34.1236 47.1189 31.8141 0 0 0
2593 4 4 0 34.6465 45.9743 31.1671 0 0 0
2597 4 7 0 34.8972 47.5763 32.1278 0 0 0
1275 2 5 0 31.8373 49.0398 35.5848 1 0 0
1274 2 1 0 33.2152 46.8259 34.5015 1 0 0
2601 4 1 0 32.9995 45.0597 32.0057 0 0 0
1868 3 8 0 30.1285 49.4145 31.6181 1 0 0
1878 3 1 0 31.9238 50.5971 30.6107 1 0 0
1265 2 3 0 31.1173 45.3428 35.1494 1 0 0
1711 3 5 0 35.692 47.0602 34.7867 0 0 0
1269 2 9 0 29.9538 47.4966 34.7984 1 0 0
1266 2 4 0 31.1966 46.874 35.2118 1 0 0
1277 2 7 0 34.4194 49.3091 34.807 1 0 0
1276 2 9 0 33.8427 48.9471 35.4625 1 0 0
2598 4 8 0 32.9562 45.076 30.1319 0 0 0
1710 3 1 0 37.8709 45.5724 36.4203 0 0 0
2582 4 9 0 35.6795 49.4333 31.7429 0 0 0
2583 4 7 0 35.8643 48.4815 31.8377 0 0 0
2588 4 5 0 36.6145 47.2888 30.7366 0 0 0
2631 4 14 0 41.4273 46.3309 33.2344 0 0 0
2634 4 3 0 40.9541 46.0681 30.9407 0 0 0
2633 4 8 0 40.2617 46.9371 30.7299 0 0 0
1722 3 3 0 38.9214 49.9237 35.6824 0 0 0
1716 3 4 0 37.6175 49.1813 35.4762 0 0 0
1719 3 9 0 36.7145 49.7127 34.5456 0 0 0
1720 3 7 0 35.854 49.4516 34.8619 0 0 0
1714 3 8 0 37.7175 47.7148 34.0218 0 0 0
1728 3 8 0 39.4546 49.257 33.1229 0 0 0
1733 3 9 0 39.9161 50.1123 31.1884 0 0 0
1734 3 7 0 40.7078 50.0649 30.642 0 0 0
1725 3 5 0 38.5361 51.3977 34.1366 0 0 0
1723 3 4 0 39.3981 50.868 34.598 0 0 0
1729 3 3 0 40.0699 50.1156 33.4294 0 0 0
1721 3 8 0 39.5728 49.0735 35.8068 0 0 0
1715 3 3 0 37.6906 47.7158 35.1874 0 0 0
1731 3 1 0 41.1181 49.7303 33.4776 0 0 0
1730 3 4 0 40.2124 51.0204 32.211 0 0 0
1736 3 3 0 41.6275 51.6659 31.9508 0 0 0
1738 3 1 0 42.166 51.8279 32.9053 0 0 0
418 1 1 0 41.6122 44.3966 35.1092 0 0 0
1709 3 4 0 36.4101 47.0344 35.6728 0 0 0
1708 3 3 0 36.798 45.575 36.0717 0 0 0
415 1 8 0 43.0344 43.3564 35.5898 0 0 0
2823 1 12 0 46.0184 43.9306 35.7308 -5 -5 2
2635 4 4 0 42.3706 46.2517 30.6235 0 0 0
2637 4 5 0 42.9992 45.9225 31.4313 0 0 0
2645 4 14 0 44.8481 48.8922 30.0915 0 0 0
1817 3 9 0 46.8055 47.6314 32.857 0 0 0
3035 16 11 0 44.61 50.7336 34.1332 2 -3 1
3037 16 12 0 44.6957 50.7871 32.9689 2 -3 1
1818 3 7 0 46.269 48.3578 33.1976 0 0 0
1812 3 8 0 47.7337 49.3842 30.8885 0 0 0
1735 3 8 0 42.1224 50.9572 31.3509 0 0 0
2817 1 16 0 46.7528 44.624 35.3413 -5 -5 2
3034 16 16 0 43.5563 49.7939 34.6604 2 -3 1
3038 16 12 0 45.5705 50.3855 34.5397 2 -3 1
3046 16 12 0 42.8305 50.0631 35.5047 2 -3 1
1819 3 8 0 47.4864 49.0466 34.6717 0 0 0
2818 1 12 0 47.6116 43.3156 33.9233 -5 -5 2
1822 3 1 0 47.6997 50.2356 33.3615 0 0 0
1809 3 5 0 47.9384 46.5327 30.7495 0 0 0
1814 3 4 0 48.1237 48.1654 32.7517 0 0 0
1813 3 3 0 48.4207 48.6188 31.3338 0 0 0
1844 3 5 0 54.39 45.637 35.0233 0 0 0
1802 3 5 0 49.9624 45.4873 31.5589 0 0 0
1799 3 3 0 51.7375 46.3117 31.7099 0 0 0
1816 3 5 0 48.8181 47.3025 32.9882 0 0 0
1807 3 4 0 48.5409 47.4206 30.366 0 0 0
1820 3 3 0 48.191 49.3032 33.8295 0 0 0
1805 3 8 0 50.0504 46.7324 59.4453 0 0 -1
1800 3 4 0 50.622 45.8946 30.7592 0 0 0
1815 3 1 0 49.3054 49.2058 31.3689 0 0 0
1824 3 14 0 49.8703 50.9392 33.704 0 0 0
1798 3 8 0 51.3733 47.0151 32.4973 0 0 0
1793 3 4 0 53.0346 46.7207 30.9399 0 0 0
1808 3 1 0 50.6059 47.8824 30.0793 0 0 0
1806 3 3 0 49.9788 47.0589 30.0035 0 0 0
1788 3 5 0 52.6006 49.3915 30.6655 0 0 0
1795 3 5 0 52.8524 47.1225 29.9138 0 0 0
1796 3 9 0 53.834 45.5689 30.8122 0 0 0
1786 3 4 0 53.3509 49.3078 31.447 0 0 0
1823 3 5 0 50.1899 48.877 33.7208 0 0 0
1821 3 4 0 49.5943 49.6331 34.1292 0 0 0
1803 3 9 0 50.9743 44.8456 29.8654 0 0 0
1787 3 1 0 55.0833 49.9352 30.427 0 0 0
1792 3 3 0 53.8214 47.8713 31.5767 0 0 0
1779 3 4 0 54.0668 51.7052 31.1215 0 0 0
1789 3 14 0 52.69 49.5669 32.6551 0 0 0
1785 3 3 0 54.5264 50.2737 31.3033 0 0 0
1781 3 5 0 53.2108 51.9675 31.7783 0 0 0
1837 3 5 0 52.1968 47.0804 34.6665 0 0 0
1839 3 7 0 52.8715 45.2825 35.8131 0 0 0
2785 4 9 0 30.2763 45.2699 59.4463 1 0 -1
1852 3 9 0 58.2147 45.9239 34.8023 0 0 0
2786 4 7 0 30.3956 44.3737 59.0887 1 0 -1
1871 3 1 0 29.9499 51.0882 31.6771 1 0 0
1869 3 3 0 60.0222 50.1843 31.1333 0 0 0
1270 2 7 0 30.1792 48.3923 34.5135 1 0 0
1849 3 4 0 56.9135 46.4806 34.7056 0 0 0
1851 3 5 0 56.3968 45.8922 33.9405 0 0 0
1791 3 8 0 54.0392 47.7366 32.6087 0 0 0
1860 3 7 0 59.2248 47.6724 31.7923 0 0 0
1855 3 3 0 57.0424 47.915 34.2895 0 0 0
1859 3 9 0 58.7219 47.2883 32.4872 0 0 0
1861 3 8 0 59.153 49.7231 33.366 0 0 0
1794 3 1 0 54.8793 47.8192 31.1436 0 0 0
1784 3 8 0 55.0006 50.1866 32.2706 0 0 0
1854 3 8 0 57.6711 48.4647 35.0622 0 0 0
1864 3 1 0 57.518 50.3072 33.2872 0 0 0
1862 3 3 0 58.1831 49.5825 32.7705 0 0 0
1863 3 4 0 58.5562 49.9813 31.3652 0 0 0
1856 3 4 0 57.7012 48.1741 32.8753 0 0 0
1858 3 5 0 56.9006 48.0545 32.1805 0 0 0
1865 3 5 0 58.2088 49.2084 30.6228 0 0 0
1857 3 1 0 56.0824 48.4379 34.331 0 0 0
1962 3 1 0 58.0831 51.0517 35.3382 0 0 0
1848 3 3 0 56.1865 46.4013 36.0672 0 0 0
1842 3 4 0 54.6828 46.03 36.0258 0 0 0
2980 12 12 0 31.0324 27.4822 31.7644 1 1 0
2959 11 16 0 36.0399 27.5491 34.4893 -9 -11 10
2977 12 12 0 31.8889 56.4533 34.2987 1 0 0
2971 11 12 0 36.4125 57.0437 34.6313 -9 -12 10
1283 2 9 0 31.4349 51.7878 33.9281 1 0 0
1284 2 7 0 31.414 52.1215 33.0217 1 0 0
2976 12 11 0 30.84 57.3091 32.6159 1 0 0
1280 2 4 0 32.7086 51.2082 34.1929 1 0 0
1282 2 5 0 32.8812 51.3324 35.2802 1 0 0
1288 2 1 0 34.669 51.6149 33.0122 1 0 0
2983 12 12 0 59.9142 55.6789 32.2182 0 0 0
2979 12 11 0 30.493 55.9467 32.0196 1 0 0
2984 12 12 0 31.1412 55.1599 32.4298 1 0 0
2982 12 10 0 30.695 55.8803 30.4816 1 0 0
1286 2 3 0 33.6847 52.0481 33.3103 1 0 0
1287 2 4 0 33.8798 53.4038 34.026 1 0 0
1285 2 8 0 33.2795 52.2431 32.3249 1 0 0
1290 2 14 0 34.1585 54.3891 33.0058 1 0 0
1289 2 5 0 33.0416 53.6695 34.5386 1 0 0
1293 2 3 0 34.9613 53.3492 35.1306 1 0 0
1881 3 7 0 33.1443 52.3026 29.9605 1 0 0
1295 2 1 0 35.5251 52.3767 35.1475 1 0 0
2988 12 12 0 60.279 55.7434 29.8056 0 0 0
2987 12 13 0 31.7751 55.5057 30.0301 1 0 0
135 1 8 0 60.2826 57.2053 35.5385 0 0 0
2552 4 1 0 38.8171 57.2736 34.266 0 0 0
2569 4 7 0 35.8811 53.4629 32.9158 0 0 0
2568 4 9 0 36.7281 53.0819 32.6861 0 0 0
2557 4 3 0 38.8917 57.2839 31.7118 0 0 0
2566 4 1 0 37.1952 55.1331 33.0689 0 0 0
2563 4 8 0 36.4188 55.8419 31.7235 0 0 0
2553 4 5 0 41.006 57.0783 31.9812 0 0 0
1292 2 8 0 35.7417 54.1263 35.0205 1 0 0
1726 3 9 0 40.2756 51.7888 35.2417 0 0 0
1732 3 5 0 39.3785 51.7197 32.3051 0 0 0
2558 4 4 0 38.7114 55.7685 31.4565 0 0 0
2560 4 5 0 39.4227 55.0837 31.9766 0 0 0
2561 4 9 0 38.768 55.6269 30.091 0 0 0
2564 4 3 0 37.3329 55.2689 32.0068 0 0 0
2565 4 4 0 37.147 53.8159 31.4609 0 0 0
1739 3 5 0 41.2531 53.861 31.9246 0 0 0
2567 4 5 0 38.1567 53.3968 31.2127 0 0 0
2546 4 5 0 40.1326 55.2572 34.2675 0 0 0
2544 4 4 0 40.624 56.2152 34.5481 0 0 0
1727 3 7 0 39.7198 52.5238 35.5419 0 0 0
1737 3 4 0 41.4207 53.024 31.24 0 0 0
2547 4 14 0 42.0339 56.2738 34.1575 0 0 0
2541 4 7 0 39.3166 53.6044 36.301 0 0 0
2540 4 9 0 39.0905 54.5271 36.2424 0 0 0
1743 3 3 0 42.8233 53.158 30.5112 0 0 0
1745 3 1 0 43.584 52.6635 31.103 0 0 0
1744 3 4 0 43.3072 54.5996 30.4538 0 0 0
1752 3 1 0 45.2132 53.801 60.2493 0 0 -1
1750 3 3 0 44.834 54.6934 30.2273 0 0 0
1746 3 5 0 42.9103 55.0645 31.3308 0 0 0
1753 3 5 0 45.4508 54.6076 32.29 0 0 0
1751 3 4 0 45.6729 55.1497 31.4243 0 0 0
1754 3 9 0 45.4436 56.4989 31.6811 0 0 0
1760 3 5 0 46.7581 52.9239 31.5627 0 0 0
1755 3 7 0 45.2467 56.901 30.8325 0 0 0
1759 3 1 0 47.3643 55.429 30.2392 0 0 0
1757 3 3 0 47.1306 55.0859 31.2544 0 0 0
1758 3 4 0 47.6297 53.6659 31.4941 0 0 0
1763 3 8 0 48.223 53.3384 59.8963 0 0 -1
1756 3 8 0 47.5934 55.8825 31.8683 0 0 0
1742 3 8 0 42.7896 52.6577 59.9916 0 0 -1
3041 16 12 0 43.7913 52.7082 33.8924 2 -3 1
1766 3 1 0 48.5714 52.0784 30.6737 0 0 0
1761 3 9 0 48.1738 53.7624 32.8065 0 0 0
1764 3 3 0 48.6434 53.153 30.4371 0 0 0
3043 16 12 0 45.8996 53.3518 34.007 2 -3 1
3040 16 12 0 43.7564 52.0564 35.4816 2 -3 1
3036 16 11 0 44.3618 52.1182 34.6059 2 -3 1
3039 16 11 0 45.5988 52.9014 34.913 2 -3 1
3042 16 16 0 45.4231 54.0044 35.9087 2 -3 1
696 1 3 0 50.7728 27.0651 31.6513 0 0 1
1773 3 1 0 51.1401 51.6288 30.6839 0 0 0
1762 3 7 0 47.7623 53.1368 33.3658 0 0 0
702 1 7 0 52.356 27.2539 32.7876 0 0 1
700 1 9 0 53.0324 27.0517 32.1324 0 0 1
1778 3 3 0 53.5488 52.0845 60.1401 0 0 -1
693 1 9 0 49.3552 27.59 60.2494 0 0 0
701 1 6 0 52.4607 57.3341 30.1779 0 -1 1
695 1 8 0 50.1481 56.6194 31.4516 0 -1 1
697 1 4 0 52.2006 57.0573 31.1984 0 -1 1
699 1 5 0 52.4175 55.9068 31.1328 0 -1 1
1767 3 5 0 50.4813 53.8196 31.4407 0 0 0
1765 3 4 0 50.1244 53.5312 30.417 0 0 0
1771 3 3 0 51.032 52.3997 29.9216 0 0 0
1774 3 5 0 52.3917 53.8412 30.4007 0 0 0
183 1 7 0 50.9592 52.9212 34.3821 0 0 0
1768 3 9 0 50.1476 54.6781 59.9939 0 0 -1
1769 3 7 0 51.0104 54.4816 59.5838 0 0 -1
1772 3 4 0 52.3606 53.0321 60.1175 0 0 -1
177 1 8 0 52.2336 55.9911 34.3691 0 0 0
1951 3 7 0 54.7313 53.4054 34.6597 0 0 0
1941 3 1 0 55.9539 57.1502 30.8926 0 0 0
140 1 14 0 57.8173 57.0063 36.9986 0 0 0
1944 3 7 0 57.7499 56.1997 34.4496 0 0 0
1959 3 8 0 59.4715 51.5926 34.3624 0 0 0
1960 3 3 0 58.8513 51.8199 35.209 0 0 0
1955 3 1 0 56.2463 52.6235 34.6216 0 0 0
1957 3 14 0 59.2774 54.1616 34.5719 0 0 0
1943 3 9 0 57.8177 56.7346 33.6678 0 0 0
1939 3 3 0 56.9171 57.3319 31.4816 0 0 0
1940 3 4 0 56.6184 56.8085 32.9162 0 0 0
1945 3 8 0 56.6153 54.6843 32.2301 0 0 0
1942 3 5 0 56.0516 27.1122 33.4205 0 1 0
1950 3 9 0 54.795 54.3435 34.5153 0 0 0
1946 3 3 0 56.0841 55.3437 32.9755 0 0 0
1952 3 8 0 57.3009 52.9911 33.1881 0 0 0
1953 3 3 0 56.9492 53.3747 34.2424 0 0 0
1947 3 4 0 56.1605 54.6816 34.3358 0 0 0
1949 3 5 0 56.39 55.3055 35.1587 0 0 0
1954 3 4 0 58.2553 53.2595 35.0547 0 0 0
1948 3 1 0 54.9903 55.236 32.7485 0 0 0
1782 3 9 0 55.2044 52.4161 31.385 0 0 0
1783 3 7 0 54.8304 53.2975 31.5417 0 0 0
137 1 4 0 58.9454 27.4288 37.0952 0 1 0
1956 3 5 0 58.0162 53.7415 36.024 0 0 0
2962 11 12 0 35.2962 27.4479 36.4391 -9 -11 10
3008 14 12 0 31.5864 29.0145 38.345 1 1 -1
3009 14 11 0 31.1208 31.694 40.2697 1 1 -1
3005 14 11 0 31.9339 30.0732 38.5218 1 1 -1
3007 14 12 0 32.7652 30.0533 39.2317 1 1 -1
3006 14 11 0 30.7276 30.7277 39.1841 1 1 -1
3010 14 12 0 30.0556 29.9761 39.5698 1 1 -1
3016 14 12 0 33.1801 30.5962 36.6586 1 1 -1
3004 14 16 0 32.2534 30.8598 37.2047 1 1 -1
2458 4 8 0 35.5942 27.9486 41.2878 0 1 0
3014 14 12 0 30.9991 31.3258 41.2434 1 1 -1
3013 14 12 0 32.1414 32.0434 40.1681 1 1 -1
1213 2 14 0 35.6588 32.4356 41.3344 1 0 0
2463 4 14 0 33.1857 28.0482 41.0676 0 1 0
3011 14 12 0 30.1623 31.318 38.4221 1 1 -1
3012 14 16 0 30.111 32.8019 40.4971 1 1 -1
3018 14 12 0 59.6581 32.7726 39.8907 0 1 -1
2461 4 1 0 35.7277 27.0288 42.6871 0 1 0
1506 3 4 0 40.4933 31.4607 35.6422 0 0 0
2961 11 11 0 36.439 29.1961 36.4022 -9 -11 10
1508 3 5 0 39.8399 30.962 36.3816 0 0 0
2968 11 12 0 35.7018 28.2813 38.2739 -9 -11 10
2973 11 12 0 38.4165 29.9557 38.3312 -9 -11 10
2967 11 16 0 37.6492 29.2258 38.6261 -9 -11 10
2964 11 11 0 36.2925 29.1004 37.9101 -9 -11 10
1513 3 4 0 39.0963 33.1999 36.7454 0 0 0
1535 3 1 0 37.9224 30.6951 40.9949 0 0 0
1529 3 5 0 37.8829 32.6369 42.2273 0 0 0
1532 3 8 0 39.597 30.7844 40.3955 0 0 0
1522 3 5 0 37.8103 32.1335 39.2318 0 0 0
1516 3 14 0 37.9627 32.3409 36.426 0 0 0
1533 3 3 0 38.9403 30.9324 41.2821 0 0 0
1527 3 4 0 38.8786 32.3847 41.7794 0 0 0
1521 3 1 0 40.2001 31.9706 38.0912 0 0 0
2969 11 12 0 35.718 29.9938 38.1404 -9 -11 10
1537 3 14 0 39.7053 28.8255 41.7423 0 0 0
1507 3 1 0 42.3316 31.9633 36.6359 0 0 0
1494 3 5 0 43.9513 27.6943 36.4769 0 0 0
1501 3 5 0 41.329 29.2232 36.3248 0 0 0
1499 3 4 0 42.2565 29.8061 36.0901 0 0 0
2832 2 16 0 42.1192 27.9803 39.5677 1 0 2
2838 2 12 0 42.5433 28.9539 39.7255 1 0 2
1485 3 4 0 46.4665 28.0869 36.7629 0 0 0
1502 3 14 0 42.9354 29.8346 37.3243 0 0 0
502 1 1 0 44.972 30.9262 40.274 0 0 0
500 1 3 0 45.2852 31.8968 40.7627 0 0 0
1473 3 5 0 47.188 27.3157 40.799 0 0 0
1480 3 5 0 47.5565 27.2563 38.7388 0 0 0
1478 3 4 0 48.2447 28.196 38.5136 0 0 0
496 1 5 0 44.0692 32.5965 39.1327 0 0 0
1487 3 5 0 45.8226 27.7881 37.5767 0 0 0
499 1 8 0 46.3026 32.1039 40.31 0 0 0
1471 3 4 0 47.8615 28.1531 41.0374 0 0 0
509 1 1 0 43.9474 29.9892 41.9475 0 0 0
498 1 7 0 42.2831 32.5476 40.3623 0 0 0
501 1 4 0 45.3819 31.7817 42.2756 0 0 0
505 1 7 0 46.8673 32.2048 43.4172 0 0 0
497 1 9 0 42.9928 32.9609 40.8687 0 0 0
1484 3 3 0 47.622 28.9263 37.3285 0 0 0
1486 3 1 0 47.2292 29.9323 37.5876 0 0 0
1479 3 1 0 47.8834 29.9584 39.6639 0 0 0
948 2 7 0 45.847 32.4148 37.2472 0 0 1
2833 2 12 0 42.5593 27.6779 41.5917 1 0 2
2829 2 11 0 42.2253 27.0643 40.7612 1 0 2
2834 2 12 0 41.2483 57.2273 41.0422 1 -1 2
937 2 4 0 49.4091 32.5113 36.1846 0 0 1
1489 3 7 0 46.2147 56.8062 35.9199 0 -1 0
1488 3 9 0 46.9318 26.9385 36.0612 0 0 0
1477 3 3 0 48.3769 28.9869 39.7922 0 0 0
933 2 9 0 51.7367 31.4954 37.3247 0 0 1
2234 4 8 0 49.3123 31.396 41.3199 0 0 0
2239 4 9 0 51.597 30.4911 40.0346 0 0 0
167 1 5 0 52.935 28.2293 37.9023 0 1 0
2236 4 4 0 51.6996 31.1555 41.2866 0 0 0
2240 4 7 0 51.5772 31.1857 39.3411 0 0 0
1476 3 8 0 49.445 29.1647 39.8044 0 0 0
2238 4 5 0 52.497 31.8423 41.2415 0 0 0
2241 4 8 0 52.4984 29.3499 41.8797 0 0 0
934 2 7 0 52.6403 31.8073 37.4877 0 0 1
1483 3 8 0 48.3044 29.15 36.5268 0 0 0
169 1 7 0 51.7781 28.167 39.5945 0 1 0
2242 4 3 0 51.9745 30.1511 42.3963 0 0 0
2246 4 9 0 54.1621 30.3254 43.1156 0 0 0
2235 4 3 0 50.3473 31.9691 41.566 0 0 0
939 2 5 0 49.2411 32.2748 37.231 0 0 1
2237 4 1 0 50.3177 32.2418 42.6655 0 0 0
175 1 9 0 53.6045 26.9924 35.8925 0 1 0
165 1 4 0 53.0971 27.2692 38.4951 0 1 0
168 1 9 0 52.2384 27.3468 39.6515 0 1 0
2247 4 7 0 54.1376 30.2368 42.1503 0 0 0
1482 3 7 0 49.7965 27.2312 38.8903 0 0 0
149 1 8 0 57.3738 31.273 36.9052 0 1 0
160 1 5 0 54.0683 29.0981 39.4797 0 1 0
155 1 7 0 54.6787 31.4018 38.8842 0 1 0
142 1 8 0 58.9916 28.3078 35.0789 0 1 0
143 1 3 0 58.795 28.6125 36.1815 0 1 0
145 1 1 0 59.5797 29.355 36.4112 0 1 0
153 1 5 0 55.0756 29.7218 37.6013 0 1 0
150 1 3 0 57.2751 30.3183 37.4243 0 1 0
154 1 9 0 55.5801 31.5079 38.5924 0 1 0
161 1 9 0 54.9695 28.0491 41.1299 0 1 0
152 1 1 0 58.1006 30.1325 38.1793 0 1 0
158 1 4 0 54.9341 28.439 39.7366 0 1 0
157 1 3 0 56.1471 29.2204 39.2906 0 1 0
151 1 4 0 55.9485 30.1754 38.1568 0 1 0
156 1 8 0 56.3866 29.8278 40.1407 0 1 0
159 1 1 0 57.0219 28.5513 39.2097 0 1 0