LAMMPS (23 Jun 2022)
# Initialization
units			real
dimension		3
processors		* * *
boundary		p p p
atom_style		full
pair_style		lj/cut 10.0
bond_style		harmonic
angle_style 	harmonic
read_data		pre_minimize.data
Reading data file ...
  orthogonal box = (-4.9465 -7.861 -4.977498) to (95.0535 92.139 95.022502)
  1 by 1 by 1 MPI processor grid
  reading atoms ...
  3108 atoms
  scanning bonds ...
  3 = max bonds/atom
  scanning angles ...
  6 = max angles/atom
  reading bonds ...
  3084 bonds
  reading angles ...
  5680 angles
Finding 1-2 1-3 1-4 neighbors ...
  special bond factors lj:    0        0        0       
  special bond factors coul:  0        0        0       
     4 = max # of 1-2 neighbors
     7 = max # of 1-3 neighbors
    14 = max # of 1-4 neighbors
    18 = max # of special neighbors
  special bonds CPU = 0.001 seconds
  read_data CPU = 0.016 seconds

#output

thermo			100
thermo_style	custom step temp pe press vol lx density
dump			1 all custom 100 complete_with_more_steps.lammpstrj id type x y z

#intial minimization
minimize		1.0e-5 1.0e-5 10000 10000
WARNING: Using 'neigh_modify every 1 delay 0 check yes' setting during minimization (src/min.cpp:187)
Generated 78 of 78 mixed pair_coeff terms from geometric mixing rule
Neighbor list info ...
  update every 1 steps, delay 0 steps, check yes
  max neighbors/atom: 2000, page size: 100000
  master list distance cutoff = 12
  ghost atom cutoff = 12
  binsize = 6, bins = 17 17 17
  1 neighbor lists, perpetual/occasional/extra = 1 0 0
  (1) pair lj/cut, perpetual
      attributes: half, newton on
      pair build: half/bin/newton
      stencil: half/bin/3d
      bin: standard
Per MPI rank memory allocation (min/avg/max) = 12.06 | 12.06 | 12.06 Mbytes
   Step          Temp          PotEng         Press          Volume           Lx          Density    
         0   0              2264.9041     -478.08839      1000000        100            0.03259871   
       100   0             -165.69299     -19.301206      1000000        100            0.03259871   
       200   0             -234.195       -14.466784      1000000        100            0.03259871   
       300   0             -276.82416     -4.5654976      1000000        100            0.03259871   
       400   0             -309.89227     -4.0435833      1000000        100            0.03259871   
       500   0             -339.17554     -2.799285       1000000        100            0.03259871   
       600   0             -359.84008     -2.9561891      1000000        100            0.03259871   
       700   0             -379.88102     -6.1583354      1000000        100            0.03259871   
       800   0             -395.13141     -3.747564       1000000        100            0.03259871   
       900   0             -403.68714     -3.7145638      1000000        100            0.03259871   
      1000   0             -411.28675     -2.1781768      1000000        100            0.03259871   
      1100   0             -416.78355     -2.9352326      1000000        100            0.03259871   
      1200   0             -421.33484     -3.2210882      1000000        100            0.03259871   
      1300   0             -427.35666     -4.0689887      1000000        100            0.03259871   
      1400   0             -434.99883     -5.2381042      1000000        100            0.03259871   
      1500   0             -444.60865     -2.6806638      1000000        100            0.03259871   
      1600   0             -457.08148     -4.6932456      1000000        100            0.03259871   
      1700   0             -472.13932     -2.704528       1000000        100            0.03259871   
      1800   0             -483.43787     -3.5517002      1000000        100            0.03259871   
      1900   0             -493.7315      -3.8336296      1000000        100            0.03259871   
      2000   0             -501.94278     -4.0918142      1000000        100            0.03259871   
      2100   0             -508.65402     -4.4891369      1000000        100            0.03259871   
      2200   0             -515.72303     -3.8194267      1000000        100            0.03259871   
      2300   0             -521.72853     -5.4433647      1000000        100            0.03259871   
      2400   0             -526.78909     -4.9611422      1000000        100            0.03259871   
      2500   0             -530.80834     -4.0757079      1000000        100            0.03259871   
      2600   0             -534.32359     -3.8301571      1000000        100            0.03259871   
      2700   0             -537.97031     -3.3404412      1000000        100            0.03259871   
      2800   0             -542.24406     -4.1323827      1000000        100            0.03259871   
      2900   0             -546.1504      -3.6953043      1000000        100            0.03259871   
      3000   0             -549.98943     -2.6945442      1000000        100            0.03259871   
      3100   0             -552.92601     -2.9971325      1000000        100            0.03259871   
      3200   0             -555.12987     -2.7158628      1000000        100            0.03259871   
      3300   0             -557.92357     -4.7173087      1000000        100            0.03259871   
      3400   0             -561.9071      -5.2126778      1000000        100            0.03259871   
      3500   0             -565.76933     -4.3230446      1000000        100            0.03259871   
      3600   0             -570.08852     -4.3148024      1000000        100            0.03259871   
      3700   0             -575.54812     -3.1071132      1000000        100            0.03259871   
      3800   0             -580.78839     -3.5981064      1000000        100            0.03259871   
      3900   0             -586.09946     -3.8599377      1000000        100            0.03259871   
      4000   0             -591.32514     -3.0945627      1000000        100            0.03259871   
      4100   0             -595.00594     -3.9936038      1000000        100            0.03259871   
      4200   0             -600.49471     -2.514716       1000000        100            0.03259871   
      4300   0             -605.70235     -4.3313835      1000000        100            0.03259871   
      4400   0             -610.271       -3.1963158      1000000        100            0.03259871   
      4500   0             -616.69127     -4.2946239      1000000        100            0.03259871   
      4600   0             -622.74448     -5.7416916      1000000        100            0.03259871   
      4700   0             -628.35118     -2.5400526      1000000        100            0.03259871   
      4800   0             -634.1601      -2.5704929      1000000        100            0.03259871   
      4900   0             -639.56387     -4.8917         1000000        100            0.03259871   
      4999   0             -644.64688     -2.931021       1000000        100            0.03259871   
Loop time of 29.7002 on 1 procs for 4999 steps with 3108 atoms

99.6% CPU use with 1 MPI tasks x no OpenMP threads

Minimization stats:
  Stopping criterion = max force evaluations
  Energy initial, next-to-last, final = 
      2264.90408280047  -644.593247220998  -644.646876778246
  Force two-norm initial, final = 1843.4335 8.5054267
  Force max component initial, final = 121.15907 1.8051894
  Final line search alpha, max atom move = 0.0062113296 0.011212627
  Iterations, force evaluations = 4999 10000

MPI task timing breakdown:
Section |  min time  |  avg time  |  max time  |%varavg| %total
---------------------------------------------------------------
Pair    | 26.032     | 26.032     | 26.032     |   0.0 | 87.65
Bond    | 2.6104     | 2.6104     | 2.6104     |   0.0 |  8.79
Neigh   | 0.33839    | 0.33839    | 0.33839    |   0.0 |  1.14
Comm    | 0.03074    | 0.03074    | 0.03074    |   0.0 |  0.10
Output  | 0.1044     | 0.1044     | 0.1044     |   0.0 |  0.35
Modify  | 0          | 0          | 0          |   0.0 |  0.00
Other   |            | 0.5841     |            |       |  1.97

Nlocal:           3108 ave        3108 max        3108 min
Histogram: 1 0 0 0 0 0 0 0 0 0
Nghost:            493 ave         493 max         493 min
Histogram: 1 0 0 0 0 0 0 0 0 0
Neighs:         206036 ave      206036 max      206036 min
Histogram: 1 0 0 0 0 0 0 0 0 0

Total # of neighbors = 206036
Ave neighs/atom = 66.292149
Ave special neighs/atom = 11.407979
Neighbor list builds = 84
Dangerous builds = 0

timestep 1
# nvt for 1 ps
fix			1 all nvt temp 300 300 100
run			1000
Generated 78 of 78 mixed pair_coeff terms from geometric mixing rule
Per MPI rank memory allocation (min/avg/max) = 11.32 | 11.32 | 11.32 Mbytes
   Step          Temp          PotEng         Press          Volume           Lx          Density    
      4999   0             -644.64688     -2.931021       1000000        100            0.03259871   
      5000   0.00050792219 -644.65184     -2.918124       1000000        100            0.03259871   
      5100   0.20864492    -646.30922     -3.3307832      1000000        100            0.03259871   
      5200   0.35492462    -646.70038     -2.9692439      1000000        100            0.03259871   
      5300   0.53845702    -646.71279     -4.1433773      1000000        100            0.03259871   
      5400   0.84481612    -646.74298     -4.0538378      1000000        100            0.03259871   
      5500   1.3550185     -646.79691     -2.5656029      1000000        100            0.03259871   
      5600   1.9482443     -644.71994     -3.5481011      1000000        100            0.03259871   
      5700   2.9013963     -642.51904     -3.0361459      1000000        100            0.03259871   
      5800   4.4627435     -639.63125     -2.9449726      1000000        100            0.03259871   
      5900   6.6305206     -633.15197     -3.2983198      1000000        100            0.03259871   
      5999   10.770316     -629.2999      -6.3057078      1000000        100            0.03259871   
Loop time of 1.94088 on 1 procs for 1000 steps with 3108 atoms

Performance: 44.516 ns/day, 0.539 hours/ns, 515.231 timesteps/s
99.6% CPU use with 1 MPI tasks x no OpenMP threads

MPI task timing breakdown:
Section |  min time  |  avg time  |  max time  |%varavg| %total
---------------------------------------------------------------
Pair    | 1.5943     | 1.5943     | 1.5943     |   0.0 | 82.14
Bond    | 0.25127    | 0.25127    | 0.25127    |   0.0 | 12.95
Neigh   | 0.029958   | 0.029958   | 0.029958   |   0.0 |  1.54
Comm    | 0.0023409  | 0.0023409  | 0.0023409  |   0.0 |  0.12
Output  | 0.020903   | 0.020903   | 0.020903   |   0.0 |  1.08
Modify  | 0.037193   | 0.037193   | 0.037193   |   0.0 |  1.92
Other   |            | 0.004952   |            |       |  0.26

Nlocal:           3108 ave        3108 max        3108 min
Histogram: 1 0 0 0 0 0 0 0 0 0
Nghost:            471 ave         471 max         471 min
Histogram: 1 0 0 0 0 0 0 0 0 0
Neighs:         208499 ave      208499 max      208499 min
Histogram: 1 0 0 0 0 0 0 0 0 0

Total # of neighbors = 208499
Ave neighs/atom = 67.08462
Ave special neighs/atom = 11.407979
Neighbor list builds = 7
Dangerous builds = 0
unfix			1

# npt for 100ps
fix			1 all npt temp 300 300 100 iso 1 1 100
run			100000
Generated 78 of 78 mixed pair_coeff terms from geometric mixing rule
Per MPI rank memory allocation (min/avg/max) = 11.32 | 11.32 | 11.32 Mbytes
   Step          Temp          PotEng         Press          Volume           Lx          Density    
      5999   10.770316     -629.2999      -6.3057078      1000000        100            0.03259871   
      6000   10.769919     -629.28999     -6.0089673      999991.38      99.999713      0.032598991  
      6100   12.662591     -620.02394      2.5783106      995941.48      99.864533      0.032731552  
      6200   16.566461     -608.26069      0.23648125     992128.42      99.736923      0.032857349  
      6300   23.535187     -598.74218      5.3236007      988764.38      99.624068      0.032969139  
      6400   31.490555     -564.7106      -0.85971559     989076.67      99.634555      0.032958729  
      6500   46.184598     -543.95275      0.2796828      993397.04      99.779415      0.032815389  
      6600   68.242239     -514.57555     -1.1079925      999266.2       99.975534      0.032622649  
      6700   99.003051     -461.28309      4.2194127      1016149.7      100.53545      0.032080618  
      6800   140.83141     -379.81897      3.2129661      1053822.4      101.76282      0.030933781  
      6900   196.91762     -288.99065      3.8549015      1105407.8      103.3969       0.029490212  
      7000   257.89971     -158.18987      5.4592333      1166586.9      105.27026      0.027943663  
      7100   311.92922     -43.477964      1.1078582      1246910.6      107.63291      0.026143583  
      7200   321.34876      127.43432      1.366235       1326081        109.86432      0.024582744  
      7300   301.66528      176.46957     -3.3549001      1386512.9      111.5085       0.023511292  
      7400   290.23558      108.84139      9.6326699      1423502.8      112.49143      0.022900349  
      7500   286.44314      193.77312      3.3050787      1473698.8      113.79842      0.022120335  
      7600   305.12222      259.60002     -7.0347679      1524954.7      115.10274      0.021376839  
      7700   312.96407      314.83122     -0.39709038     1582755.6      116.539        0.020596174  
      7800   298.24217      345.47312      1.9059712      1638398.5      117.88897      0.019896692  
      7900   284.59469      377.3079       5.1837447      1694071        119.20941      0.019242825  
      8000   295.52461      382.63194     -3.4856523      1799599        121.63501      0.01811443   
      8100   311.94282      420.37474     -2.5591869      1855542.9      122.88258      0.017568287  
      8200   307.06699      496.07143     -14.998064      1909338        124.05881      0.017073305  
      8300   296.3869       496.16683      6.2377998      2000518.9      126.003        0.016295128  
      8400   287.89021      527.45224      9.4585646      2096590.4      127.98857      0.01554844   
      8500   300.12381      540.72403      12.345439      2200255.5      130.06418      0.014815875  
      8600   304.52024      645.5503      -0.59361417     2336996.6      132.70461      0.013948976  
      8700   304.82631      683.6728       0.32491449     2446034.4      134.7372       0.013327168  
      8800   302.38478      648.74727      3.1702751      2549315        136.60749      0.012787243  
      8900   290.54427      700.067        3.1739908      2696999.3      139.19606      0.01208703   
      9000   296.5583       714.49266      7.6147856      2782846.6      140.65756      0.01171416   
      9100   307.98958      738.70886      4.264953       2959294        143.56967      0.011015705  
      9200   306.75309      785.07857     -3.4586538      3109911        145.9652       0.010482201  
      9300   294.24302      811.10991     -6.6490496      3273943.9      148.48768      0.0099570155 
      9400   290.45938      810.19795      0.26850193     3431444.4      150.83159      0.0094999967 
      9500   301.49409      789.65978      3.0741703      3488432.9      151.662        0.0093448007 
      9600   305.63679      860.89482      9.2172017      3520850        152.13034      0.0092587615 
      9700   306.29229      846.67424      1.3276607      3623227.4      153.5908       0.0089971472 
      9800   291.6231       900.09749      3.6302915      3721867.6      154.97214      0.008758697  
      9900   297.03937      872.84378     -0.80765064     3832906.1      156.49822      0.0085049593 
     10000   306.30159      882.82519      1.6754948      3945971.8      158.02216      0.0082612628 
     10100   304.77101      925.54273      6.5993917      3984470.7      158.53441      0.0081814406 
     10200   299.61844      933.29437      0.47416501     4108078.4      160.15712      0.0079352697 
     10300   298.98693      912.85072     -3.8303203      4165736.7      160.90292      0.007825437  
     10400   298.60565      937.49517     -0.14643155     4298383.9      162.59296      0.0075839458 
     10500   304.0572       937.82803      10.086154      4397325        163.83104      0.0074133048 
     10600   304.35486      950.52543      4.9590628      4516119.6      165.29326      0.0072183009 
     10700   300.21988      969.50019      2.1302369      4615335.6      166.49496      0.007063129  
     10800   297.57328      947.8265      -3.5026794      4717027.6      167.70891      0.0069108585 
     10900   292.88993      990.44401     -1.0775452      4857148.7      169.35335      0.0067114912 
     11000   299.42251      1027.5738     -3.2863944      5016360.7      171.1839       0.0064984782 
     11100   305.10656      1015.3368     -0.82563282     5184415.5      173.07457      0.0062878274 
     11200   298.35224      1024.1371      6.8340361      5312533.6      174.48867      0.006136189  
     11300   295.25554      1012.7029     -2.3672717      5517590.9      176.7054       0.005908142  
     11400   295.41132      1022.824       3.4370528      5672661.7      178.34556      0.0057466339 
     11500   299.16257      1038.3012     -0.14553376     5720601.1      178.84654      0.0056984764 
     11600   297.92221      1106.9971      2.7621438      5867804        180.3676       0.0055555214 
     11700   308.78709      1026.998       0.52572394     5902666.9      180.72411      0.0055227088 
     11800   303.73519      1015.7204      2.3422585      5923090.4      180.93231      0.0055036658 
     11900   293.82551      1042.3263     -3.6088373      5943932.4      181.14428      0.0054843676 
     12000   293.93897      1076.7183      5.3747627      5999139        181.70337      0.0054338981 
     12100   303.30478      1093.1965      1.0364327      5993260.5      181.644        0.005439228  
     12200   306.47762      1098.6311      3.36422        5970465.7      181.41342      0.0054599946 
     12300   299.9672       1107.7124      2.8411026      5910095.3      180.79989      0.0055157673 
     12400   294.78611      1114.9868      2.1617503      5908383.1      180.78243      0.0055173657 
     12500   300.80225      1082.5783     -2.3309723      5946906.5      181.17449      0.0054816248 
     12600   297.74141      1165.2861      1.0575688      5961573.1      181.3233       0.005468139  
     12700   303.50197      1132.2731      0.23953295     5897458.9      180.67094      0.0055275859 
     12800   302.64176      1104.8633     -5.9934159      5866648.1      180.35576      0.0055566159 
     12900   298.23325      1133.9734      0.72939667     5838388.9      180.06571      0.0055835113 
     13000   299.6334       1147.8383     -7.3564186      5972072.1      181.42969      0.0054585259 
     13100   299.41344      1178.6845      1.963818       6115931.9      182.87495      0.0053301297 
     13200   300.80132      1199.4224      1.5619722      6376905.6      185.43996      0.0051119951 
     13300   304.21167      1199.3576      1.7567811      6483416        186.4667       0.0050280146 
     13400   304.91782      1196.9085      3.7008898      6723632.8      188.74176      0.0048483775 
     13500   301.84973      1216.8038      1.1106404      6989672.6      191.199        0.0046638393 
     13600   298.9557       1209.2553      3.3178401      7226674.3      193.33604      0.0045108869 
     13700   290.17578      1286.9564      0.19977401     7534087.3      196.03948      0.0043268294 
     13800   299.99022      1268.4799      0.62051876     7726831.5      197.69718      0.0042188975 
     13900   304.10209      1292.4479     -2.3476791      8016365.2      200.13628      0.0040665201 
     14000   300.10987      1334.6084      2.5029638      8332211.7      202.73097      0.0039123718 
     14100   302.3942       1277.2929      5.6191716      8636809.6      205.17185      0.0037743926 
     14200   292.8306       1310.4943      1.526492       8991171.2      207.94034      0.0036256356 
     14300   297.65436      1270.3679     -3.7858647      9368586.9      210.81008      0.003479576  
     14400   301.06237      1302.2324     -4.0853119      9751460.7      213.6436       0.0033429566 
     14500   305.56094      1336.6691     -0.38361736     10055368       215.84036      0.0032419213 
     14600   301.24408      1383.4214      1.9134517      10571439       219.47145      0.0030836589 
     14700   301.00922      1372.8859      1.6921254      10921604       221.86841      0.0029847915 
     14800   301.25225      1331.3179      0.77142571     11339903       224.66553      0.0028746904 
     14900   296.08627      1370.0857      3.1782738      11718801       227.1404       0.0027817445 
     15000   302.81629      1358.1342      1.1008511      12008996       229.00005      0.0027145241 
     15100   301.02854      1424.1386     -0.53732461     12165152       229.98835      0.0026796797 
     15200   302.15945      1371.3623      0.3607764      12402006       231.47138      0.0026285031 
     15300   291.97088      1387.6504      4.5627013      12402578       231.47494      0.0026283819 
     15400   293.80481      1376.9221      1.9597357      12437120       231.68964      0.0026210819 
     15500   302.03848      1381.2465      3.2951718      12402021       231.47148      0.0026284999 
     15600   307.63055      1392.9551      0.79433041     12474006       231.91846      0.0026133313 
     15700   307.74065      1374.9146     -0.30848422     12706300       233.34923      0.0025655548 
     15800   302.19652      1347.9075      0.63549904     12828975       234.09779      0.0025410222 
     15900   291.91128      1404.1556      2.1537481      12882072       234.42031      0.0025305487 
     16000   297.60202      1430.8784     -4.1635939      13284372       236.83561      0.0024539143 
     16100   308.44464      1414.5003      4.0831971      13566606       238.50111      0.002402864  
     16200   303.00319      1437.901       1.595665       13921157       240.56094      0.0023416668 
     16300   296.61909      1415.6533      2.8009871      14284705       242.63704      0.0022820709 
     16400   291.91408      1433.4884     -1.5000985      14411806       243.35455      0.0022619448 
     16500   296.64934      1457.7843      0.18937332     14400797       243.29257      0.0022636741 
     16600   303.85934      1473.2435      0.28244003     14629313       244.5727       0.0022283146 
     16700   305.06483      1467.8233      2.4498254      14602308       244.42211      0.0022324355 
     16800   297.09794      1440.5156     -0.44884908     14682974       244.87137      0.0022201708 
     16900   289.19377      1444.1558      2.5929109      14602130       244.42112      0.0022324627 
     17000   300.74132      1373.4491      2.8085554      14657009       244.72694      0.0022241039 
     17100   302.05295      1431.3517      2.2420526      14789468       245.46195      0.0022041841 
     17200   302.65092      1461.5934     -2.2587727      15038786       246.83359      0.0021676424 
     17300   304.53657      1424.8914      3.7278563      14994221       246.58953      0.0021740849 
     17400   295.49528      1476.7808     -0.70603839     15015552       246.70641      0.0021709964 
     17500   302.70826      1425.5804      1.8039838      14754799       245.27         0.0022093632 
     17600   303.83796      1457.1617     -2.7287971      14700444       244.96845      0.0022175324 
     17700   302.58614      1475.1126      2.060364       14490992       243.79944      0.0022495844 
     17800   299.32267      1480.2156      4.2762132      14361001       243.06825      0.0022699469 
     17900   296.56424      1477.7269      3.7743906      14376602       243.15624      0.0022674837 
     18000   295.37437      1490.4342      2.9676957      14407974       243.33298      0.0022625465 
     18100   301.42735      1491.1573     -0.59303824     14477768       243.72526      0.0022516392 
     18200   301.92817      1507.264      -0.72318442     14266824       242.53575      0.0022849311 
     18300   296.29346      1521.9657     -2.6704905      14294589       242.69299      0.0022804929 
     18400   300.73871      1457.7492      5.7956081      14026603       241.16679      0.002324063  
     18500   299.05466      1479.1752      3.7482608      14049818       241.29976      0.002320223  
     18600   304.38212      1463.2009      0.19396989     13765438       239.66062      0.0023681564 
     18700   305.28054      1453.6763     -2.6707636      13622124       238.826        0.002393071  
     18800   297.99749      1459.8159      0.22243777     13405480       237.55315      0.0024317451 
     18900   293.43821      1452.5731      3.6892902      13099292       235.73059      0.0024885857 
     19000   298.60387      1433.3664      2.4092493      13051982       235.44646      0.002497606  
     19100   297.48541      1502.7026     -3.7002936      13134956       235.94433      0.0024818287 
     19200   299.43403      1500.804      -0.19326411     13123512       235.87578      0.0024839929 
     19300   293.16026      1520.1103      3.5521267      13226226       236.48956      0.0024647024 
     19400   296.46796      1433.494      -0.67317503     13263253       236.71004      0.0024578216 
     19500   293.53655      1461.3675     -0.69416995     13214026       236.41683      0.0024669778 
     19600   303.68877      1444.1442      2.2907925      12947110       234.81416      0.0025178369 
     19700   303.04871      1491.1173      3.1655425      12836982       234.14648      0.0025394373 
     19800   305.21799      1447.7443      2.8932687      12856053       234.26238      0.0025356703 
     19900   298.01359      1471.1714      3.0089466      13025138       235.28493      0.0025027535 
     20000   297.41624      1483.1316      0.75363245     13068836       235.54775      0.0024943852 
     20100   299.46774      1528.2184     -0.98038194     13184688       236.24173      0.0024724673 
     20200   309.37664      1466.6139      0.73745389     13360037       237.28442      0.0024400165 
     20300   304.9211       1463.0489      2.7924302      13457514       237.86011      0.0024223427 
     20400   294.61479      1525.3961     -3.1559322      13538767       238.33786      0.002407805  
     20500   302.61462      1473.1128      1.5361748      13379458       237.39934      0.0024364747 
     20600   295.6466       1573.4307     -1.8526271      13438894       237.75035      0.002425699  
     20700   308.28674      1476.9589      5.3629811      13511525       238.1779       0.0024126596 
     20800   301.95648      1521.9693     -1.883941       13618617       238.8055       0.0023936873 
     20900   301.7285       1487.8248     -0.47954801     13680908       239.16905      0.0023827886 
     21000   295.43652      1512.7069     -1.712476       13734546       239.48121      0.0023734829 
     21100   297.34831      1535.8908      4.4704247      13691155       239.22875      0.0023810051 
     21200   300.99879      1575.8834      1.1270532      13763663       239.65032      0.0023684618 
     21300   305.81698      1552.9604      1.3031343      13839025       240.08692      0.0023555642 
     21400   298.5988       1546.0047      2.9636486      13858898       240.20179      0.0023521863 
     21500   294.78741      1505.7875     -0.24896441     13867531       240.25165      0.002350722  
     21600   296.79809      1489.7823      1.4242952      13764595       239.65573      0.0023683014 
     21700   299.5561       1537.9756     -1.5140094      13656665       239.02769      0.0023870184 
     21800   302.16573      1588.6934      2.1457781      13500091       238.11069      0.0024147031 
     21900   307.35678      1522.9265      2.0156339      13499966       238.10996      0.0024147254 
     22000   297.9088       1519.3695      1.7681769      13290557       236.87236      0.0024527723 
     22100   294.63823      1499.3661      0.13654176     13211463       236.40154      0.0024674564 
     22200   301.26693      1468.8284      0.424747       13143074       235.99292      0.0024802958 
     22300   301.85525      1532.3188     -0.28042125     13182499       236.22866      0.0024728779 
     22400   303.32561      1541.469       3.1975705      13180303       236.21554      0.0024732899 
     22500   302.43036      1520.1665      2.0405135      13173025       236.17205      0.0024746564 
     22600   297.08475      1537.5337      1.9125255      13247039       236.61354      0.00246083   
     22700   293.77242      1569.43        1.1460633      13284789       236.83809      0.0024538372 
     22800   300.56222      1549.8517      0.46616504     13347301       237.209        0.0024423447 
     22900   305.07277      1545.2212     -0.080511512    13330187       237.10757      0.0024454803 
     23000   304.35375      1547.9965      5.740252       13286681       236.84933      0.0024534879 
     23100   294.99853      1551.1143      1.9352339      13420737       237.64323      0.0024289807 
     23200   296.56243      1497.6737     -0.16276768     13348178       237.21419      0.0024421842 
     23300   301.72571      1482.0769      1.2184416      13436498       237.73623      0.0024261314 
     23400   305.95672      1539.2666      0.73854746     13440660       237.76077      0.0024253802 
     23500   307.08771      1532.5813      4.4680639      13633958       238.89514      0.0023909939 
     23600   297.15691      1527.4885      2.6797342      14026944       241.16874      0.0023240067 
     23700   294.74428      1509.3968      1.5890969      14210796       242.21784      0.0022939399 
     23800   296.78329      1525.9981      4.2159296      14321205       242.84352      0.0022762547 
     23900   301.30959      1538.8589     -0.30322058     14324327       242.86117      0.0022757585 
     24000   307.36881      1494.7921      2.1391728      14395035       243.26012      0.0022645801 
     24100   294.49079      1549.0551      1.6121298      14669421       244.796        0.0022222221 
     24200   295.70801      1485.9465     -0.63109335     14623324       244.53932      0.0022292271 
     24300   300.33804      1478.2382      2.2113852      14384054       243.19824      0.002266309  
     24400   308.20968      1517.8781     -1.6929572      14447141       243.55327      0.0022564126 
     24500   302.96547      1563.8094      2.6253978      14263053       242.51438      0.0022855352 
     24600   297.82434      1548.1282      0.67622285     14231389       242.33479      0.0022906204 
     24700   298.35958      1500.9852     -0.21944185     14079488       241.4695       0.0023153335 
     24800   300.35237      1493.2157      0.66900488     13898772       240.43193      0.0023454382 
     24900   296.3034       1546.8926      0.32945519     13712735       239.35437      0.0023772581 
     25000   303.96366      1481.9616      3.6940145      13551420       238.41209      0.0024055568 
     25100   301.73422      1488.2145     -1.8030102      13559351       238.45859      0.0024041497 
     25200   290.60475      1556.9554     -1.1571088      13259250       236.68623      0.0024585637 
     25300   293.762        1466.4919      1.6178251      12939830       234.77014      0.0025192533 
     25400   292.7616       1508.2726      1.5810488      12731840       233.50547      0.0025604085 
     25500   303.48779      1504.7532      3.5751504      12442487       231.72296      0.0026199512 
     25600   302.37214      1518.6833     -3.0068193      12150472       229.89581      0.0026829172 
     25700   299.3209       1494.1851      0.23442023     11726023       227.18706      0.0027800312 
     25800   296.58903      1487.0292     -1.5841233      11668217       226.81312      0.002793804  
     25900   300.33786      1433.3979      1.5718758      11468802       225.51357      0.0028423814 
     26000   296.77342      1459.0741      2.8875791      11418710       225.18477      0.0028548504 
     26100   300.99885      1464.4537     -2.0233759      11401057       225.06867      0.0028592708 
     26200   312.19875      1496.3184      2.1131978      11128290       223.25926      0.0029293548 
     26300   310.8055       1504.7049      3.9835841      11003231       222.41978      0.0029626489 
     26400   309.32876      1436.7826      2.8932439      10769745       220.83529      0.0030268785 
     26500   299.64302      1449.1716      1.4437188      10663381       220.10588      0.0030570707 
     26600   298.3767       1427.5988     -4.2910925      10523333       219.13804      0.0030977554 
     26700   298.36684      1430.9289      1.0199379      10326335       217.76198      0.003156852  
     26800   304.66383      1423.2006      5.159491       10180147       216.72949      0.0032021847 
     26900   303.23286      1500.0167     -0.60559682     10072378       215.962        0.0032364463 
     27000   301.21443      1513.3992     -1.4336816      9991753.7      215.38423      0.0032625614 
     27100   295.13564      1461.3372      1.1935421      9904905.6      214.75838      0.0032911682 
     27200   299.27934      1409.1561      3.7256435      9747380.3      213.6138       0.003344356  
     27300   303.34299      1389.6872     -0.23238727     9588191.5      212.44454      0.003399881  
     27400   300.95677      1481.9754     -3.8471208      9395984.8      211.01538      0.0034694299 
     27500   309.10019      1484.3368      2.8850857      9182611.2      209.40581      0.003550048  
     27600   308.47812      1412.6059      1.902671       9172361.2      209.32787      0.0035540151 
     27700   301.76615      1428.3847      2.3785654      9072355.8      208.56433      0.0035931913 
     27800   303.24494      1408.2811      4.3587878      9022979.7      208.18527      0.0036128542 
     27900   297.01655      1515.1346     -0.78416187     9056851.4      208.44545      0.0035993425 
     28000   302.60275      1526.7324     -2.7155102      8959999.9      207.69976      0.0036382489 
     28100   307.89525      1460.5723      6.4500412      8728014.8      205.89154      0.0037349513 
     28200   294.44687      1473.6516      0.43522948     8554381.9      204.51706      0.0038107616 
     28300   299.30098      1428.278       3.4331814      8389426.7      203.19394      0.0038856899 
     28400   296.46672      1477.6804      0.3424054      8265128.4      202.18544      0.0039441263 
     28500   304.07815      1479.4551     -0.30694353     8141887.6      201.17547      0.0040038271 
     28600   304.73292      1519.2695      5.2734449      8008355.9      200.06961      0.0040705871 
     28700   302.26321      1448.1459      5.1163327      7881658        199.00891      0.0041360219 
     28800   296.36493      1436.2387     -3.7947916      7678839        197.28702      0.0042452655 
     28900   298.21566      1447.109      -1.0714012      7529964.6      196.00372      0.0043291983 
     29000   302.18411      1484.7701      5.5999164      7372500.7      194.62783      0.0044216625 
     29100   301.58923      1494.5521      3.1901957      7215504.4      193.23638      0.0045178699 
     29200   293.3993       1491.3295     -9.0773348      7109720.1      192.2874       0.0045850905 
     29300   293.01287      1445.6666      2.9231193      6927152.4      190.62722      0.0047059323 
     29400   297.97816      1435.4885      3.3888099      6790394.8      189.3644       0.0048007091 
     29500   299.38605      1460.441      -2.3450916      6613012.1      187.70094      0.0049294799 
     29600   302.06444      1465.3987      2.1225388      6465676.9      186.29649      0.0050418094 
     29700   305.97191      1449.0549     -0.43239094     6381964        185.48898      0.0051079433 
     29800   302.80394      1500.1841     -2.9830191      6175228.7      183.46407      0.0052789479 
     29900   305.67354      1454.2487      7.9281839      5950775.6      181.21377      0.0054780607 
     30000   292.28658      1511.8182      0.64363278     5857695.4      180.26397      0.0055651084 
     30100   297.3521       1446.7365     -5.6054929      5657601.3      178.18759      0.0057619314 
     30200   305.44951      1429.9924      2.3809152      5509495.7      176.61894      0.0059168229 
     30300   306.2811       1501.4926     -6.3291165      5316146.1      174.52821      0.0061320193 
     30400   302.19673      1494.2276      6.388951       5104454.5      172.18016      0.0063863259 
     30500   299.78848      1457.9755     -1.9252912      4989009.7      170.87222      0.0065341043 
     30600   301.83995      1415.8869      0.045819471    4917362.9      170.05031      0.0066293073 
     30700   297.05209      1432.9814      3.1095149      4798361.3      168.66733      0.0067937173 
     30800   299.24208      1412.004       7.405725       4676802.1      167.23082      0.0069702993 
     30900   302.11759      1452.481       1.939361       4582299.9      166.09676      0.0071140499 
     31000   308.99198      1447.9539      8.2070283      4520239.8      165.34351      0.0072117214 
     31100   306.93532      1405.8634     -0.83885346     4438590.4      164.34192      0.0073443836 
     31200   297.84005      1436.398       1.0525149      4347731.6      163.21281      0.0074978662 
     31300   294.8222       1479.4814     -1.5191295      4226888.4      161.68644      0.007712224  
     31400   304.86631      1426.6561     -14.654242      4104226.8      160.10705      0.0079427166 
     31500   303.50161      1446.5219      1.5289966      4017293.3      158.96854      0.0081145954 
     31600   295.52852      1411.7856      9.8110636      3922730.8      157.71131      0.0083102083 
     31700   297.74289      1371.1275     -6.452837       3887490.1      157.23761      0.0083855417 
     31800   298.60243      1418.492       6.8211477      3830599.8      156.46682      0.00851008   
     31900   301.05072      1452.652       2.4572029      3785384.8      155.84876      0.0086117297 
     32000   300.04637      1461.7475     -2.1116891      3729707.9      155.08089      0.0087402852 
     32100   298.89163      1474.0334     -2.6202103      3662106.3      154.13821      0.0089016286 
     32200   295.09711      1507.5265      14.580124      3585329.7      153.05342      0.0090922489 
     32300   302.88708      1416.6316     -2.9268936      3511896.2      152.00127      0.0092823673 
     32400   299.26281      1422.4772      4.1199597      3442441.1      150.99255      0.0094696494 
     32500   294.98205      1454.3866     -5.1518087      3396753.1      150.32158      0.0095970207 
     32600   298.99702      1463.7663      6.1227048      3334500.7      149.3976       0.0097761892 
     32700   307.10367      1448.9687      14.690938      3319120.2      149.16754      0.0098214914 
     32800   298.82983      1455.8183     -21.709876      3360785.7      149.78912      0.0096997289 
     32900   293.8995       1438.5961     -4.4285489      3283491.5      148.63188      0.0099280629 
     33000   298.09848      1410.1263     -4.7771385      3216578        147.6153       0.010134594  
     33100   300.91622      1442.9275     -5.2453512      3174322.4      146.96605      0.010269502  
     33200   305.35241      1438.437       5.2701506      3128569.8      146.25654      0.010419684  
     33300   298.28562      1393.4611      0.6632497      3079286.1      145.48448      0.010586451  
     33400   292.549        1406.0806     -13.74658       3009145.8      144.37137      0.010833211  
     33500   304.52499      1365.0241      12.00709       2897932.6      142.57042      0.011248954  
     33600   298.86355      1457.5176      3.3875349      2880901.8      142.29058      0.011315454  
     33700   296.82104      1461.9292     -10.175458      2832997.3      141.49748      0.011506792  
     33800   293.92228      1390.7388     -7.9496095      2762254.6      140.30977      0.011801487  
     33900   292.78985      1386.6737     -10.791162      2757474.2      140.22878      0.011821946  
     34000   293.91513      1437.2499      8.9515999      2719091.1      139.57509      0.011988826  
     34100   293.00259      1498.4439     -4.5554913      2684766.2      138.98529      0.012142104  
     34200   303.78784      1443.5941     -2.3330201      2681197.7      138.92368      0.012158264  
     34300   311.15097      1361.9167     -2.3562495      2618069.8      137.82471      0.012451429  
     34400   296.45078      1404.2299     -12.01697       2597120.2      137.4561       0.012551868  
     34500   297.07134      1369.0378      3.2474862      2555066.2      136.71014      0.01275846   
     34600   297.21072      1404.7896     -4.4133712      2515627.2      136.00309      0.012958482  
     34700   303.30128      1387.1381     -4.0804379      2499502.2      135.71187      0.013042081  
     34800   298.79475      1444.9198     -22.991315      2450189.7      134.81345      0.013304566  
     34900   309.10072      1348.6249      3.7613081      2396022.4      133.81258      0.013605345  
     35000   298.04545      1345.7597     -1.2987982      2359528.3      133.12973      0.013815774  
     35100   296.87863      1323.9435      8.763739       2351041.4      132.96993      0.013865647  
     35200   291.69956      1442.8414      3.4073845      2339148.3      132.74533      0.013936145  
     35300   297.76704      1443.3404      4.7248854      2314859.1      132.28427      0.014082373  
     35400   301.35659      1430.1974     -11.583791      2298276        131.96762      0.014183984  
     35500   301.55314      1397.1888     -13.975924      2291519.4      131.83817      0.014225806  
     35600   289.91321      1415.5977     -4.3212735      2288721.8      131.7845       0.014243195  
     35700   294.68222      1350.9757     -0.85749496     2274111.4      131.50348      0.014334703  
     35800   301.83614      1427.3242     -15.029111      2265572.3      131.33868      0.014388731  
     35900   299.64421      1464.1061     -21.637161      2276319.2      131.54602      0.014320799  
     36000   298.82039      1453.3437      15.66649       2264626.9      131.32041      0.014394738  
     36100   299.0466       1426.4864      13.201092      2272018.8      131.46313      0.014347905  
     36200   299.20548      1408.4426      0.31161677     2267347.1      131.37297      0.014377468  
     36300   295.41754      1453.4433     -6.1645415      2263022.5      131.28939      0.014404943  
     36400   302.73166      1473.1446     -2.7518559      2275532.2      131.53086      0.014325752  
     36500   306.10441      1459.9993     -10.670382      2260621.9      131.24295      0.01442024   
     36600   300.24235      1431.3654      12.356878      2235558.5      130.75612      0.014581909  
     36700   300.82046      1383.8937      19.941851      2204858.3      130.15481      0.014784946  
     36800   296.45924      1418.0781      3.4862319      2183967.9      129.74245      0.014926369  
     36900   300.68355      1397.3832      2.5879066      2192891.7      129.91892      0.014865627  
     37000   305.33931      1423.2765      0.90382605     2181911.1      129.7017       0.014940439  
     37100   305.69352      1471.091      -1.2214568      2188081.3      129.82385      0.014898308  
     37200   295.18752      1493.8849     -13.518963      2155364.2      129.17354      0.015124455  
     37300   292.66666      1452.3774     -2.0039909      2134053.6      128.7464       0.015275488  
     37400   300.69847      1412.2034     -9.4958634      2111855.2      128.29844      0.015436054  
     37500   299.38867      1478.4997     -1.8046843      2107297.3      128.20608      0.01546944   
     37600   301.22644      1455.5149      3.9101967      2110399.8      128.26896      0.015446699  
     37700   301.65907      1398.0041      33.964556      2063547.8      127.31264      0.01579741   
     37800   291.31338      1365.623      -9.6060469      2067069.3      127.38502      0.015770497  
     37900   298.62371      1335.6855     -11.610156      2035089.3      126.72467      0.016018319  
     38000   295.6073       1448.0416      12.868442      2025384.7      126.52291      0.016095071  
     38100   302.06538      1440.7592      6.2194129      2032720.7      126.67548      0.016036984  
     38200   298.76012      1474.2592      2.0324177      2021921.2      126.45075      0.016122641  
     38300   298.726        1430.4885     -14.112503      2023329.1      126.48009      0.016111423  
     38400   288.82765      1434.8111     -28.209686      2013498.7      126.27493      0.016190082  
     38500   290.47147      1449.2801      26.291351      2005508.3      126.10767      0.016254588  
     38600   300.34494      1423.9069      17.582903      2010647.1      126.21528      0.016213044  
     38700   298.38611      1455.2326      11.375833      2033703.4      126.69589      0.016029235  
     38800   298.72306      1462.1537     -32.28004       2042763.7      126.88376      0.015958141  
     38900   302.6571       1428.2186     -17.971672      2048124.8      126.99466      0.015916369  
     39000   300.03528      1411.1426      12.725596      2047330.9      126.97825      0.015922541  
     39100   292.90932      1414.3091     -6.111842       2044440.3      126.91847      0.015945053  
     39200   299.95303      1383.737      -4.664001       2057327.2      127.18458      0.015845175  
     39300   304.18501      1436.5936      5.7566309      2069050.7      127.4257       0.015755395  
     39400   300.83205      1469.8176      14.398936      2073984        127.5269       0.015717918  
     39500   302.36813      1428.0333      5.1613532      2035844.3      126.74034      0.016012379  
     39600   295.02019      1414.9877     -6.5041659      2054454.3      127.12535      0.015867333  
     39700   294.81226      1374.1807     -4.1832118      2077429.1      127.59747      0.015691852  
     39800   293.63618      1426.7309      11.152549      2079658.9      127.64311      0.015675028  
     39900   298.48402      1424.4861      4.7543031      2096141.1      127.97943      0.015551773  
     40000   303.09629      1430.376      -26.384895      2090153.9      127.85746      0.015596321  
     40100   306.44321      1435.9493      25.077374      2115319.5      128.36856      0.015410774  
     40200   304.06286      1486.8852      8.6692938      2125729.2      128.57878      0.015335307  
     40300   305.82671      1456.7983      17.364199      2134319.8      128.75176      0.015273583  
     40400   298.17351      1441.4415     -10.472095      2173824.2      129.54127      0.014996019  
     40500   289.60948      1498.4873      2.4757959      2157549.9      129.21719      0.015109134  
     40600   302.84864      1458.631      -14.79135       2158640        129.23894      0.015101504  
     40700   300.04072      1524.0174      25.430334      2146504.4      128.9963       0.015186883  
     40800   301.56864      1487.2942     -15.664963      2184286.5      129.74875      0.014924192  
     40900   294.59541      1501.2741      6.3747945      2171216.4      129.48945      0.015014031  
     41000   298.83074      1461.561      -21.991599      2171878.8      129.50261      0.015009452  
     41100   303.30246      1538.0975     -7.9211877      2172132.5      129.50765      0.015007699  
     41200   304.73626      1550.5095      19.092182      2164102.3      129.34786      0.015063387  
     41300   306.01587      1448.0226      5.0304683      2152188.1      129.11006      0.015146776  
     41400   300.5257       1442.8853     -21.953154      2167827        129.42203      0.015037506  
     41500   298.54668      1445.3212     -29.864014      2174622.4      129.55712      0.014990515  
     41600   303.50074      1420.8114      10.814165      2185929.1      129.78127      0.014912977  
     41700   303.07189      1507.4339      9.6188643      2184634.8      129.75565      0.014921812  
     41800   305.4152       1521.4731     -1.9618297      2197563.8      130.01112      0.014834022  
     41900   299.53437      1473.0626     -29.30938       2175833        129.58116      0.014982175  
     42000   299.75529      1425.8101     -24.154462      2179831.4      129.66048      0.014954694  
     42100   299.32267      1450.6719      26.769149      2192290        129.90703      0.014869707  
     42200   302.53787      1476.8848      6.7720517      2176424        129.59289      0.014978106  
     42300   300.09625      1509.9108     -8.4470564      2186222.1      129.78707      0.014910978  
     42400   300.215        1406.828      -4.5792906      2191612.7      129.89365      0.014874302  
     42500   292.40776      1430.3303     -5.6629539      2201208.6      130.08296      0.01480946   
     42600   295.40286      1436.5042      11.974645      2182820.5      129.71972      0.014934215  
     42700   301.8475       1434.5782      1.837705       2194009.6      129.94099      0.014858053  
     42800   301.65907      1471.8112      6.2392785      2210448.9      130.26472      0.014747552  
     42900   298.66318      1521.1894     -19.70604       2255216.5      131.13826      0.014454803  
     43000   303.22124      1492.6094      5.5462312      2276942.6      131.55803      0.014316878  
     43100   301.9016       1467.1561      14.287665      2262380.7      131.27697      0.01440903   
     43200   301.14291      1412.6636     -13.524494      2269400.8      131.41262      0.014364457  
     43300   294.68201      1433.1023     -7.0987813      2282378.6      131.66264      0.014282779  
     43400   298.63408      1431.5227      4.0265173      2287483.4      131.76073      0.014250905  
     43500   307.30492      1456.5699      19.216645      2291694.6      131.84153      0.014224718  
     43600   307.28233      1451.0431      18.168442      2245397.5      130.94766      0.014518013  
     43700   302.27594      1431.982      -1.8982313      2262167.4      131.27285      0.014410388  
     43800   303.06454      1386.4675     -7.6438251      2283279.2      131.67996      0.014277146  
     43900   300.58194      1411.335       19.723484      2290709.3      131.82264      0.014230837  
     44000   297.66336      1449.0818      5.1698163      2318687.5      132.35715      0.014059122  
     44100   295.78077      1480.4629     -10.677095      2339245.9      132.74718      0.013935564  
     44200   302.71607      1454.8352      4.1454063      2384811.3      133.60355      0.013669304  
     44300   305.23171      1458.2234      8.5200173      2418277.9      134.22561      0.013480134  
     44400   298.37159      1476.4605      8.0315212      2443007.7      134.6816       0.013343679  
     44500   291.21863      1462.1612     -9.4881858      2451652.2      134.84027      0.013296629  
     44600   295.62456      1420.8237     -7.750181       2472914.8      135.22896      0.013182302  
     44700   297.91142      1448.0604      4.1510287      2514802.6      135.98822      0.012962731  
     44800   298.71574      1459.2074      12.069574      2555651.1      136.72057      0.01275554   
     44900   300.18758      1449.9435      8.0715802      2544112.3      136.51449      0.012813393  
     45000   300.70199      1425.1243      7.4225591      2541791.5      136.47297      0.012825092  
     45100   299.04063      1392.3935      3.011705       2553014.5      136.67354      0.012768713  
     45200   289.82746      1447.6172      30.943425      2566655.4      136.91652      0.012700852  
     45300   297.33881      1439.6818      2.3582345      2588571.1      137.30511      0.012593322  
     45400   303.6072       1457.3473     -8.5030412      2587883        137.29294      0.012596671  
     45500   301.08156      1461.3441      6.5286986      2616632.7      137.79948      0.012458267  
     45600   301.85267      1383.7645      5.2294863      2612785.4      137.73191      0.012476612  
     45700   299.95181      1372.0779     -20.233389      2617405.9      137.81305      0.012454587  
     45800   296.65047      1414.7044      2.5028583      2590671.2      137.34223      0.012583114  
     45900   304.06062      1450.2968      9.7586124      2568009.8      136.9406       0.012694153  
     46000   308.35324      1424.6933      5.755277       2563838.7      136.86642      0.012714805  
     46100   299.16901      1428.3372     -3.2976654      2542109.7      136.47866      0.012823487  
     46200   295.03751      1415.3776     -8.0930485      2559128.2      136.78255      0.012738209  
     46300   300.04345      1383.4692      44.606515      2540647.8      136.4525       0.012830865  
     46400   296.95946      1477.6221     -13.349003      2513550.6      135.96565      0.012969188  
     46500   307.6168       1396.8207     -14.213644      2501207.1      135.74272      0.013033191  
     46600   299.1522       1444.3839      2.3185168      2470116.2      135.17793      0.013197238  
     46700   301.79331      1404.4392      4.0575708      2460475.5      135.00184      0.013248947  
     46800   296.33618      1428.1828     -9.5530351      2446562.9      134.7469       0.013324289  
     46900   296.05841      1396.2108      11.087807      2416919.4      134.20048      0.013487711  
     47000   293.04834      1389.8027      13.037799      2408017.7      134.03552      0.013537571  
     47100   302.03026      1321.5097      9.1089581      2390786.3      133.71504      0.013635142  
     47200   303.30861      1407.1808     -26.50157       2393548.5      133.76651      0.013619407  
     47300   303.31142      1436.1399      0.39707379     2388021.3      133.66347      0.013650929  
     47400   301.58614      1409.9219      17.0239        2390630.7      133.71214      0.013636029  
     47500   294.23835      1412.2338      7.2980961      2382652.4      133.56322      0.01368169   
     47600   291.17368      1363.1881     -11.879512      2380393        133.52099      0.013694676  
     47700   289.95259      1346.062       18.764704      2378862.8      133.49238      0.013703485  
     47800   297.63298      1396.0823      24.411899      2387639.5      133.65635      0.013653113  
     47900   301.98767      1413.3537     -19.329494      2394108.9      133.77695      0.013616219  
     48000   301.45029      1443.3548      3.207849       2393626        133.76796      0.013618966  
     48100   302.23269      1414.6572     -0.89622882     2406721.1      134.01145      0.013544864  
     48200   302.93676      1345.9034      9.7819535      2400707.2      133.89974      0.013578795  
     48300   297.648        1346.0839     -13.832973      2399347.2      133.87445      0.013586492  
     48400   296.5768       1389.0512     -5.4520869      2396492.3      133.82133      0.013602677  
     48500   302.6062       1444.0851      26.605004      2386050.1      133.62668      0.013662207  
     48600   301.1228       1464.4662      22.858633      2397267.6      133.83576      0.013598277  
     48700   296.43771      1452.4163      21.212017      2384688.9      133.60127      0.013670006  
     48800   292.20382      1431.9867     -11.328749      2390326.1      133.70646      0.013637767  
     48900   297.84525      1389.1214     -5.3053191      2388212.1      133.66703      0.013649839  
     49000   304.46153      1467.7077      12.649178      2392687.2      133.75047      0.013624309  
     49100   305.94972      1444.6773      13.77446       2401764.6      133.91939      0.013572817  
     49200   297.97183      1445.2736     -23.926436      2429901.2      134.44032      0.013415652  
     49300   298.82635      1390.1293     -15.336133      2450546.4      134.82         0.013302629  
     49400   299.21021      1404.4943      4.4559963      2460982.3      135.01111      0.013246219  
     49500   307.90453      1414.4976      30.489821      2460484.1      135.002        0.013248901  
     49600   309.88574      1414.5518     -5.7596148      2522979.8      136.13546      0.012920718  
     49700   296.39238      1403.6489     -0.76639523     2508283.9      135.87062      0.01299642   
     49800   295.32983      1400.6244      0.018740693    2533579.7      136.32584      0.012866661  
     49900   305.98416      1340.4213      10.272203      2556544.6      136.7365       0.012751082  
     50000   298.26546      1456.3097      10.003419      2558286.7      136.76755      0.012742399  
     50100   306.3445       1391.7052     -21.860233      2543840        136.50962      0.012814764  
     50200   292.86831      1421.2532      2.4116217      2540610.3      136.45183      0.012831055  
     50300   292.4171       1383.1784      9.1455427      2564868        136.88473      0.012709703  
     50400   301.83976      1347.6517      19.622053      2529818.2      136.25834      0.012885792  
     50500   303.73385      1385.9425     -11.576582      2538228.9      136.40918      0.012843093  
     50600   296.57325      1456.3145     -14.101198      2543933.8      136.5113       0.012814292  
     50700   296.40838      1431.8547      16.871121      2545988.2      136.54804      0.012803952  
     50800   301.34766      1372.6885      24.607606      2542088        136.47828      0.012823596  
     50900   302.55351      1362.2781      14.754625      2524317        136.15951      0.012913873  
     51000   302.81957      1437.1279     -15.560764      2509503.7      135.89264      0.012990102  
     51100   308.43287      1439.8471     -14.14463       2501384.9      135.74594      0.013032265  
     51200   301.56566      1434.1571     -4.3134042      2522527.6      136.12732      0.012923034  
     51300   300.47299      1373.7996      8.0490529      2553275.2      136.67819      0.01276741   
     51400   297.96649      1397.3123      5.7856571      2574068.6      137.04821      0.012664274  
     51500   299.89487      1426.893      -8.2832564      2570919.4      136.9923       0.012679787  
     51600   307.83041      1431.6893     -3.8322734      2542064.2      136.47785      0.012823716  
     51700   312.33615      1441.6913      14.395874      2553316.1      136.67892      0.012767205  
     51800   304.95531      1406.4848      7.4888777      2525884.7      136.18769      0.012905858  
     51900   295.89317      1412.1427     -14.969877      2523120.2      136.13798      0.012919999  
     52000   304.29723      1317.6503      7.6061182      2524102.4      136.15565      0.012914971  
     52100   296.2813       1416.4036      13.23942       2527153.5      136.21049      0.012899379  
     52200   300.03556      1425.0176      6.6079134      2563042.6      136.85225      0.012718755  
     52300   303.63358      1447.7469     -19.606609      2574921.5      137.06335      0.012660079  
     52400   303.03959      1395.2803     -1.7988665      2572803.3      137.02575      0.012670503  
     52500   296.30743      1366.8369     -17.067076      2583710.9      137.21912      0.012617011  
     52600   293.09125      1413.213      -23.252529      2591249.4      137.35245      0.012580306  
     52700   301.54028      1392.629       16.841154      2565826.6      136.90178      0.012704954  
     52800   306.37466      1384.9902      20.1877        2590999.2      137.34803      0.012581521  
     52900   297.33828      1453.5365      5.6874069      2555070.7      136.71022      0.012758438  
     53000   295.08295      1363.0341     -5.8237153      2566242.5      136.90918      0.012702896  
     53100   295.19356      1321.5583      6.4493554      2573513.5      137.03836      0.012667006  
     53200   301.49826      1352.5413      6.2184948      2550578.1      136.63004      0.012780911  
     53300   298.07127      1443.4711     -5.9804637      2550327.8      136.62558      0.012782165  
     53400   301.16812      1429.3334     -5.5484168      2548134.6      136.5864       0.012793166  
     53500   304.22558      1389.981       3.7240644      2531578.3      136.28994      0.012876833  
     53600   296.21806      1371.4195      7.4100655      2535985.1      136.36897      0.012854457  
     53700   294.50348      1355.3803     -26.352235      2553546.5      136.68303      0.012766053  
     53800   304.29974      1322.2688      19.050981      2544561.9      136.52253      0.012811129  
     53900   302.56204      1395.0937     -0.83914159     2590629.5      137.34149      0.012583316  
     54000   298.32897      1440.5606      11.062045      2564055.5      136.87028      0.01271373   
     54100   297.86953      1436.2112     -16.808271      2566031.8      136.90543      0.012703939  
     54200   297.86505      1406.2803      2.7494532      2558480.5      136.771        0.012741434  
     54300   291.64855      1385.5306     -5.5811124      2577108.1      137.10213      0.012649338  
     54400   293.91661      1351.5161      23.528495      2588491.9      137.30371      0.012593707  
     54500   304.66879      1355.1635      18.653286      2598231        137.47569      0.012546502  
     54600   299.37333      1428.2905     -21.488854      2622018.6      137.89396      0.012432677  
     54700   299.7578       1434.1688      14.93388       2610840.4      137.69773      0.012485907  
     54800   301.77817      1425.2393      25.372749      2631957        138.06797      0.01238573   
     54900   294.64215      1460.2962      10.964935      2635638.8      138.13232      0.012368428  
     55000   296.22928      1389.4874     -25.045077      2637396.1      138.16301      0.012360187  
     55100   300.07729      1358.2473     -11.478759      2664407.3      138.63308      0.012234882  
     55200   307.17368      1374.9475      25.574134      2651801.9      138.41411      0.012293041  
     55300   304.47898      1442.2624     -2.9539374      2671128.6      138.74956      0.012204096  
     55400   296.11245      1453.6766     -30.116629      2691812.6      139.10677      0.012110319  
     55500   300.5792       1337.9003     -1.4952367      2724122        139.66112      0.011966685  
     55600   299.58349      1370.0047      26.78313       2753032        140.15344      0.011841021  
     55700   299.12633      1420.1915      13.852338      2768942.1      140.42291      0.011772984  
     55800   301.46073      1438.3932     -17.99025       2798938.4      140.92816      0.011646812  
     55900   302.16273      1434.7778     -11.916971      2785925.3      140.70941      0.011701215  
     56000   300.09321      1383.3385      19.51543       2785483.3      140.70197      0.011703071  
     56100   295.9489       1388.0277      19.834496      2797334.2      140.90123      0.011653491  
     56200   296.54705      1431.774       3.698014       2825463.9      141.37195      0.011537472  
     56300   303.2917       1458.3685     -3.5198277      2831119.8      141.46622      0.011514423  
     56400   306.7342       1421.0414      18.671482      2812995.3      141.16369      0.011588612  
     56500   303.82489      1417.7823     -5.5382903      2827350.2      141.4034       0.011529775  
     56600   299.54306      1430.8093     -8.2935277      2817595.6      141.2406       0.011569691  
     56700   304.96926      1378.5803      7.2215549      2795095.7      140.86364      0.011662824  
     56800   299.12588      1425.6442      24.613401      2759961.2      140.27092      0.011811293  
     56900   296.87284      1413.8273     -9.6741894      2769685.8      140.43548      0.011769822  
     57000   290.99414      1366.6312     -30.479335      2781922.4      140.64199      0.011718052  
     57100   290.03223      1386.1191      12.514694      2734074.8      139.831        0.011923123  
     57200   297.91037      1404.8063      11.487434      2730384.1      139.76805      0.01193924   
     57300   300.62461      1411.9068      19.647523      2727391.3      139.71697      0.011952341  
     57400   300.50634      1425.6235     -9.8355064      2746979.3      140.05065      0.011867112  
     57500   298.61978      1424.3995     -7.4567763      2750974.3      140.11851      0.011849878  
     57600   292.99558      1397.5342      9.1965425      2759133.1      140.25689      0.011814838  
     57700   296.33237      1352.132       15.358008      2760022.1      140.27196      0.011811032  
     57800   296.25789      1454.7587      8.4065757      2771398.9      140.46443      0.011762547  
     57900   300.50928      1442.9793     -11.950154      2793745.6      140.84095      0.011668461  
     58000   300.08924      1432.5753      2.063826       2797452.7      140.90322      0.011652998  
     58100   294.92952      1432.4416      2.2568213      2821945.6      141.31325      0.011551857  
     58200   294.48486      1382.7587     -0.087770431    2825554.2      141.37346      0.011537103  
     58300   299.48867      1335.9927     -14.508655      2873241.2      142.16435      0.011345623  
     58400   302.82067      1406.2758      4.9575889      2877911.5      142.24133      0.011327211  
     58500   303.20791      1438.0214      2.241064       2910776.3      142.78073      0.011199318  
     58600   303.41651      1408.0509      23.37448       2921801.7      142.96078      0.011157058  
     58700   297.19966      1379.1497     -10.069519      2945927.9      143.35319      0.011065685  
     58800   296.98121      1359.0424      5.9332824      2933606.2      143.15305      0.011112163  
     58900   295.87874      1411.5391     -8.1007967      2981834.1      143.93326      0.010932436  
     59000   298.97833      1403.1888      16.595615      2955700.8      143.51154      0.011029097  
     59100   299.54059      1426.3792     -11.061841      2971601.3      143.76842      0.010970082  
     59200   298.51628      1479.5203     -9.2577179      3006838.6      144.33446      0.010841523  
     59300   301.43318      1485.6422     -2.4512418      3025952.5      144.63965      0.010773041  
     59400   304.03492      1483.9207      10.739919      3019293.8      144.53348      0.0107968    
     59500   300.59721      1436.6702      3.9734671      3039360.4      144.85297      0.010725517  
     59600   295.53762      1418.0711     -4.5569108      3066847        145.28832      0.010629389  
     59700   297.12341      1412.1749     -4.8477331      3055345.9      145.10648      0.010669401  
     59800   304.3114       1418.8392      6.1050896      3074530.5      145.40955      0.010602826  
     59900   301.72071      1510.984      -1.8027083      3091668.8      145.67924      0.01054405   
     60000   302.86429      1481.6032     -19.378404      3109581.3      145.96004      0.010483312  
     60100   298.81557      1479.011       19.03245       3152756.4      146.63247      0.010339749  
     60200   295.93538      1472.2583      0.90103138     3156550.9      146.69127      0.01032732   
     60300   301.3969       1386.0089      3.031744       3137294.4      146.39236      0.010390708  
     60400   287.82021      1437.7838     -4.7783126      3124893.8      146.19923      0.010431942  
     60500   288.83449      1408.9143     -6.600331       3126664.5      146.22684      0.010426034  
     60600   302.34735      1393.1082      6.9270486      3175039.9      146.97712      0.010267181  
     60700   299.47285      1449.0714      7.798187       3179236.7      147.04185      0.010253628  
     60800   301.30768      1442.9279     -8.5662156      3221191.6      147.68584      0.010120078  
     60900   303.21414      1421.8332      0.52707162     3250161.1      148.12725      0.010029875  
     61000   298.87347      1406.9567      14.523802      3242342.3      148.00837      0.010054062  
     61100   294.57432      1388.4438     -3.0512628      3257111.6      148.23277      0.010008472  
     61200   291.39538      1453.7109     -12.805118      3298859.8      148.86341      0.0098818114 
     61300   301.85665      1451.7611     -4.3403371      3297120.1      148.83723      0.0098870255 
     61400   304.03897      1426.1532      17.03861       3240726.4      147.98378      0.010059075  
     61500   296.78308      1448.7552      2.0111385      3239154.8      147.95986      0.010063956  
     61600   297.88444      1403.2424     -8.0787915      3240400.5      147.97882      0.010060087  
     61700   291.61716      1471.7756     -0.74422363     3266381.6      148.37326      0.0099800679 
     61800   301.01828      1501.789       16.943544      3260420.4      148.28294      0.0099983151 
     61900   300.6602       1514.2549      9.4217217      3301931        148.90959      0.0098726201 
     62000   296.81676      1473.3908     -0.41238337     3294797.9      148.80228      0.009893994  
     62100   296.40945      1419.1633      1.2523263      3302968        148.92518      0.0098695203 
     62200   300.40112      1382.793       5.0843148      3322541.7      149.21878      0.0098113772 
     62300   296.25507      1454.0702      6.05125        3329074.2      149.31651      0.0097921249 
     62400   306.26744      1466.1117      4.3833002      3336177.2      149.42263      0.0097712766 
     62500   303.12608      1533.9168      0.79550118     3369452.1      149.91776      0.0096747807 
     62600   302.65495      1459.4323      8.3454452      3373252        149.9741       0.0096638823 
     62700   303.23637      1401.3025      0.1525248      3375868.2      150.01286      0.0096563931 
     62800   299.30196      1403.4388     -1.4772279      3389390.2      150.21289      0.0096178688 
     62900   299.68487      1402.5816     -11.59795       3375789.1      150.01169      0.0096566193 
     63000   305.33836      1430.0964     -2.3847272      3360136.5      149.77948      0.0097016031 
     63100   307.04734      1469.2211      10.884889      3296912.4      148.83411      0.0098876482 
     63200   297.92003      1482.8604      3.6210184      3291211.8      148.74828      0.0099047743 
     63300   307.03969      1354.0034     -3.5900831      3247417.4      148.08556      0.010038349  
     63400   300.30833      1406.5798     -9.8576635      3216357.5      147.61192      0.010135288  
     63500   299.28779      1425.9205      9.8310012      3237451.6      147.93392      0.01006925   
     63600   295.9625       1511.4803      11.085073      3249666.6      148.11974      0.010031402  
     63700   306.21928      1486.0051      2.7679382      3208738        147.49527      0.010159356  
     63800   301.37949      1489.5529      2.2677072      3188717.1      147.18786      0.010223143  
     63900   294.55318      1450.6607      11.796204      3151322.5      146.61023      0.010344454  
     64000   299.54575      1410.6006     -6.5760295      3131450        146.3014       0.010410101  
     64100   300.12086      1420.4318      2.0131141      3112801.7      146.01041      0.010472466  
     64200   297.15762      1437.7725     -8.5306875      3119618.4      146.11691      0.010449583  
     64300   293.05524      1424.0417      2.6689419      3100464.8      145.81726      0.010514137  
     64400   295.99815      1367.0768     -9.8337842      3093703        145.71118      0.010537117  
     64500   296.90241      1424.6149     -12.015582      3072054.5      145.37051      0.010611371  
     64600   302.85606      1447.5603     -14.224613      3030099.5      144.7057       0.010758297  
     64700   300.67563      1445.3227      15.174694      3015747.7      144.47687      0.010809495  
     64800   297.55052      1423.416       10.613249      2993244.5      144.11662      0.010890761  
     64900   302.04782      1351.9936      0.33373011     2971194.6      143.76187      0.010971584  
     65000   296.30498      1417.9895     -15.135099      2965447.4      143.66911      0.010992847  
     65100   300.22213      1399.9932      7.1055713      2953964.4      143.48343      0.01103558   
     65200   304.05541      1386.4065      25.568539      2940911.3      143.27177      0.011084561  
     65300   303.78469      1432.843      -11.615373      2949717        143.41463      0.01105147   
     65400   301.76118      1517.8392     -9.8900499      2957788.4      143.54532      0.011021312  
     65500   300.78918      1488.3825     -11.957754      2960601.2      143.59081      0.011010841  
     65600   298.54955      1417.4725      22.598018      2968196.7      143.7135       0.010982665  
     65700   300.76127      1391.8913      2.8553904      2950027.5      143.41966      0.011050307  
     65800   298.88097      1436.91       -10.089861      2936983.5      143.20796      0.011099385  
     65900   306.75575      1435.214      -3.2491937      2937570.2      143.2175       0.011097168  
     66000   310.61854      1459.8492      12.882688      2958307.8      143.55372      0.011019377  
     66100   301.76758      1444.4144      14.97973       2974360.7      143.81291      0.010959905  
     66200   299.71489      1394.3334     -5.5680802      2958565.1      143.55788      0.011018419  
     66300   294.04653      1441.9381     -9.3081748      2955206.6      143.50354      0.011030941  
     66400   303.37722      1407.1608      0.30904022     2956626        143.52651      0.011025646  
     66500   306.93609      1421.461       5.2512388      2962066        143.61448      0.011005396  
     66600   304.61728      1409.424      -5.8685317      2962457.6      143.62081      0.011003942  
     66700   297.51507      1364.9166     -16.350312      3003671.5      144.28377      0.010852955  
     66800   295.88944      1387.0723      18.759748      3018249.1      144.51681      0.010800537  
     66900   304.61901      1383.482       19.493388      3062237.4      145.21549      0.01064539   
     67000   303.46158      1429.6348      7.4081025      3079613        145.48963      0.010585327  
     67100   299.93039      1451.0955     -12.874245      3090271.4      145.65728      0.010548818  
     67200   292.46171      1501.9344     -15.54245       3117720.9      146.08728      0.010455942  
     67300   298.32999      1430.2752     -3.4747718      3165539.6      146.83038      0.010297995  
     67400   295.7007       1472.561       7.1688361      3147734        146.55456      0.010356247  
     67500   296.7593       1509.5862     -22.680518      3155527.1      146.67541      0.01033067   
     67600   301.51128      1480.7928     -8.6766532      3132143.1      146.3122       0.010407797  
     67700   305.93006      1358.4768      18.753518      3132978.9      146.32521      0.010405021  
     67800   298.84122      1366.1173      11.216342      3150074.7      146.59088      0.010348551  
     67900   292.46551      1448.7461      2.1553179      3154113.4      146.6535       0.010335301  
     68000   300.61517      1421.0429     -22.171046      3145326.8      146.51719      0.010364173  
     68100   307.44877      1362.2369      11.394209      3161185.1      146.76302      0.01031218   
     68200   301.49362      1399.4394      22.266076      3174663.9      146.97132      0.010268397  
     68300   292.8682       1467.2666     -6.6156321      3201975.4      147.39158      0.010180812  
     68400   298.01499      1431.8936     -2.2784322      3165283.4      146.82642      0.010298828  
     68500   293.69608      1481.9789      3.1083446      3166453.4      146.84451      0.010295023  
     68600   303.227        1442.7238      20.589285      3191707.3      147.23386      0.010213565  
     68700   304.24716      1442.4906     -9.616149       3229029.9      147.80553      0.010095512  
     68800   303.01082      1385.6083     -12.014912      3192236.2      147.24199      0.010211873  
     68900   296.98842      1389.7245     -0.73675456     3158611.7      146.72319      0.010320582  
     69000   295.91269      1410.1087      7.0355066      3167996        146.86835      0.01029001   
     69100   304.3406       1432.3517     -9.925539       3167922.9      146.86722      0.010290247  
     69200   307.61216      1421.1702     -1.0662298      3142500.4      146.47329      0.010373494  
     69300   300.85941      1435.4206     -11.2745        3182093.2      147.08587      0.010244424  
     69400   295.93672      1436.6008      0.71686134     3187091        147.16284      0.010228359  
     69500   296.16456      1419.1421     -9.1677331      3182423.9      147.09097      0.010243359  
     69600   300.65515      1393.4586      18.206246      3156536.7      146.69105      0.010327366  
     69700   306.24837      1438.1002     -7.5561462      3173008.7      146.94577      0.010273754  
     69800   301.10034      1505.7605      3.5636444      3183010.1      147.1          0.010241472  
     69900   304.66617      1385.2604      8.7375975      3218998.4      147.65231      0.010126973  
     70000   294.76012      1444.7699      0.49114571     3225860.1      147.75715      0.010105432  
     70100   300.58771      1399.195      -3.4577074      3206697.6      147.464        0.01016582   
     70200   300.35896      1441.7176     -6.5466495      3231232.7      147.83914      0.01008863   
     70300   310.87072      1416.8472      6.7575826      3258225.5      148.24966      0.01000505   
     70400   303.84294      1508.8574      9.3877854      3313160.6      149.07821      0.0098391578 
     70500   294.49939      1469.8558     -7.2072823      3344859.3      149.55214      0.0097459138 
     70600   298.17557      1405.6201     -4.1783909      3364619.2      149.84605      0.0096886775 
     70700   299.8469       1417.2564      22.166417      3382929.6      150.11738      0.0096362367 
     70800   303.1391       1439.5304     -0.21995307     3389645.3      150.21665      0.009617145  
     70900   300.40638      1508.4799     -4.0028364      3375694.9      150.01029      0.0096568887 
     71000   297.25185      1487.8013     -15.228228      3378348.4      150.04959      0.009649304  
     71100   289.4218       1465.9975      9.9611614      3367971.9      149.89581      0.0096790327 
     71200   299.90232      1385.0636      4.1306715      3397004.7      150.32529      0.0095963101 
     71300   298.58497      1459.4904     -11.802068      3404990.6      150.443        0.0095738034 
     71400   301.54038      1483.8125     -2.1887261      3412137.9      150.54819      0.0095537492 
     71500   299.11001      1483.9205      10.652126      3414924.3      150.58915      0.009545954  
     71600   294.00036      1398.6741      10.256869      3408123.7      150.48912      0.0095650021 
     71700   297.28959      1386.9839      18.135288      3390080.2      150.22308      0.0096159111 
     71800   299.79993      1433.1121     -17.890065      3406193.8      150.46071      0.0095704214 
     71900   300.38413      1468.5468     -2.5269977      3397911.2      150.33866      0.00959375   
     72000   297.53374      1463.1014     -6.6778412      3452862.8      151.14476      0.0094410673 
     72100   293.91001      1392.9076      11.631354      3447464.9      151.06596      0.0094558499 
     72200   291.22876      1393.4642     -11.465712      3452247.7      151.13579      0.0094427495 
     72300   295.1689       1401.2176      3.1507491      3477401.3      151.50197      0.0093744458 
     72400   305.47868      1353.5219      3.3750145      3486736.5      151.63742      0.0093493471 
     72500   301.20368      1436.2623      2.5594279      3454054        151.16214      0.0094378114 
     72600   298.68707      1458.9632      9.0596289      3435365.5      150.88902      0.0094891535 
     72700   294.25947      1424.8248     -9.8209149      3446766.8      151.05576      0.0094577648 
     72800   295.33235      1360.1732      11.601807      3427277.4      150.77052      0.0095115469 
[...]
     87900   298.89707      1372.8715     -3.6218511      2555410.5      136.71628      0.012756741  
     88000   294.14355      1368.5762     -7.1941624      2548140.1      136.5865       0.012793139  
     88100   295.12329      1364.1987     -12.653063      2519553.1      136.0738       0.012938291  
     88200   304.01644      1304.9447      20.112333      2490940.1      135.55673      0.01308691   
     88300   297.01043      1396.4143     -2.8562549      2475545.9      135.27691      0.013168291  
     88400   300.20594      1376.4066     -3.9606859      2444320.1      134.70572      0.013336515  
     88500   293.68674      1305.3423      8.1221091      2410355.5      134.07888      0.013524441  
     88600   295.20448      1276.7405      11.097911      2382459.5      133.55962      0.013682797  
     88700   299.56608      1309.6018      4.4905563      2371448.7      133.35355      0.013746327  
     88800   305.5242       1312.3232      27.140012      2358968.8      133.11921      0.013819051  
     88900   301.68454      1355.0064     -3.8578787      2349839.1      132.94725      0.013872742  
     89000   298.4627       1352.6678     -7.6700935      2323490.8      132.44848      0.014030058  
     89100   297.7119       1237.4021      8.5175262      2268277.5      131.39093      0.014371571  
     89200   298.97643      1226.2846      24.274109      2266223.2      131.35125      0.014384598  
     89300   303.23722      1247.9208      4.4404963      2277127.6      131.56159      0.014315715  
     89400   303.38281      1296.979      -3.3848086      2254635.9      131.127        0.014458525  
     89500   301.15732      1327.786      -31.585782      2258669.4      131.20515      0.014432705  
     89600   299.9281       1295.9311      7.8872555      2238171.5      130.80704      0.014564885  
     89700   293.04405      1241.2962      11.789034      2212669        130.30832      0.014732755  
     89800   296.98932      1223.5364      12.341617      2199010.5      130.03964      0.014824263  
     89900   298.25815      1280.9462     -8.1552536      2189183.9      129.84565      0.014890805  
     90000   299.63293      1320.8478      9.8210418      2184568.6      129.75434      0.014922264  
     90100   301.04481      1343.6431      4.5963024      2164439.2      129.35458      0.015061042  
     90200   305.01643      1305.4679      13.875127      2137071.7      128.80707      0.015253915  
     90300   293.63237      1326.9052     -18.153348      2134151.1      128.74836      0.01527479   
     90400   290.36108      1326.8968     -6.9227548      2096225.2      127.98114      0.015551149  
     90500   298.80863      1327.4185     -10.961997      2091226        127.87932      0.015588325  
     90600   306.74736      1285.1204     -11.788461      2052789.5      127.091        0.015880201  
     90700   302.17283      1319.8056      6.0422493      2034115.5      126.70445      0.016025988  
     90800   303.14994      1285.4713      9.0459857      2023139.4      126.47614      0.016112933  
     90900   293.52479      1312.2658      1.787431       2000325.5      125.99894      0.016296703  
     91000   293.31012      1229.3316      5.369794       1983340        125.64129      0.01643627   
     91100   290.49603      1301.5427     -12.69699       1972855.1      125.4195       0.016523621  
     91200   303.18736      1263.3381      25.961699      1965195.9      125.25698      0.016588021  
     91300   303.47447      1286.8384      4.882872       1964634.1      125.24505      0.016592764  
     91400   304.68302      1309.2432      0.42122343     1936441.2      124.64306      0.01683434   
     91500   308.0704       1289.6292      3.2597615      1906370.6      123.99451      0.017099881  
     91600   298.81865      1307.573      -26.166158      1899664.8      123.84895      0.017160243  
     91700   298.04679      1248.9091     -19.239853      1881486.5      123.45264      0.01732604   
     91800   301.42356      1259.5892      23.005194      1877140        123.3575       0.017366158  
     91900   300.69219      1321.8961      1.7590274      1888882        123.61418      0.017258203  
     92000   300.63395      1337.7317      6.0378969      1866006.5      123.11313      0.017469773  
     92100   300.78074      1332.4148     -28.789933      1867384.8      123.14344      0.017456879  
     92200   296.777        1367.2152      1.9342149      1854646.3      122.86279      0.01757678   
     92300   299.58288      1321.1482      11.874464      1844404.4      122.63621      0.017674383  
     92400   295.74672      1265.5015     -19.110852      1852434.5      122.81393      0.017597767  
     92500   293.07075      1258.0082      15.090282      1816610.8      122.01708      0.017944796  
     92600   300.51963      1277.7038     -18.966378      1816417.8      122.01276      0.017946703  
     92700   300.54612      1321.7919      8.5792425      1805450.2      121.76669      0.018055724  
     92800   295.49115      1384.1027     -10.255356      1805217.8      121.76147      0.018058049  
     92900   293.84838      1382.4237     -13.991905      1806183.5      121.78317      0.018048393  
     93000   294.79615      1306.7701     -6.1533273      1792989.4      121.48591      0.018181206  
     93100   292.5196       1273.0105      17.344678      1778501.9      121.15782      0.018329309  
     93200   303.09096      1247.5494     -0.64079133     1783457.8      121.27025      0.018278375  
     93300   296.66066      1373.7961      27.807917      1774604.3      121.06925      0.018369565  
     93400   305.90934      1285.9446     -21.747505      1767260.8      120.90202      0.018445897  
     93500   296.35277      1329.0105      24.576635      1742025.6      120.32379      0.018713106  
     93600   293.81024      1295.4701     -2.9973179      1756116.3      120.64734      0.018562957  
     93700   291.79927      1249.1267      7.2768191      1747417        120.44779      0.01865537   
     93800   288.60111      1267.8594     -5.5776401      1759683.9      120.72899      0.018525322  
     93900   293.58524      1346.6175     -17.719774      1774044.6      121.05652      0.018375362  
     94000   306.18422      1296.4708      4.8564137      1781916.8      121.23531      0.018294182  
     94100   301.74094      1374.7525     -24.716363      1802216.2      121.69394      0.018088125  
     94200   304.86479      1374.8967      16.094636      1789797.6      121.41378      0.01821363   
     94300   298.11306      1416.7577     -8.6632327      1811899.5      121.91151      0.017991457  
     94400   288.41706      1423.6029     -4.7704401      1819797.5      122.08839      0.017913372  
     94500   296.87151      1337.2411      38.942629      1823478.8      122.17066      0.017877208  
     94600   306.07332      1343.1092     -8.6002648      1828774.3      122.2888       0.017825442  
     94700   305.14353      1383.9326      6.2937243      1809219.6      121.85137      0.018018106  
     94800   300.95842      1403.3631      12.430637      1781912.2      121.23521      0.018294229  
     94900   297.63753      1389.9143     -19.056349      1794401        121.51778      0.018166904  
     95000   297.93239      1354.5445      16.817916      1780779.2      121.20951      0.018305869  
     95100   295.30365      1370.9266      4.738809       1768142.9      120.92213      0.018436695  
     95200   302.91319      1338.5991      2.3882237      1754668.2      120.61417      0.018578276  
     95300   303.59934      1390.5328      29.705957      1753686.6      120.59168      0.018588675  
     95400   300.94457      1405.4563     -13.161296      1756266.3      120.65078      0.018561371  
     95500   296.4084       1356.8303      5.7266387      1752617.4      120.56716      0.018600015  
     95600   294.58041      1362.7997      0.27842246     1745587        120.40573      0.018674928  
     95700   295.3953       1407.7694     -5.8253502      1735719        120.17841      0.018781099  
     95800   303.66221      1360.7921      17.805458      1730986.4      120.06909      0.018832447  
     95900   303.8845       1377.0275      7.7037786      1700072.8      119.35002      0.019174891  
     96000   305.66739      1368.8455     -7.8945514      1696646.4      119.26979      0.019213615  
     96100   298.6268       1423.493       1.0047326      1678463.4      118.84218      0.019421759  
     96200   301.5417       1358.6714      5.7514751      1668892.3      118.61586      0.019533143  
     96300   294.47938      1408.3132     -17.420581      1662129.4      118.45542      0.019612618  
     96400   296.10354      1456.8594      29.326019      1628545.5      117.65218      0.02001707   
     96500   303.29777      1467.1654      9.6000006      1612767.4      117.27099      0.020212903  
     96600   300.89983      1449.8416     -26.184554      1595087.7      116.84089      0.020436939  
     96700   298.38412      1406.882      -18.709639      1584710.1      116.58695      0.020570772  
     96800   300.02839      1375.9446      0.42568909     1547117.3      115.65766      0.021070613  
     96900   298.01651      1381.5662      6.6236487      1542172.1      115.5343       0.021138179  
     97000   301.21955      1313.6919      10.649829      1516963.3      114.90132      0.021489452  
     97100   291.29556      1357.2717      13.050523      1518543.7      114.94121      0.021467087  
     97200   297.51963      1339.8422      24.976603      1501587        114.51178      0.021709505  
     97300   303.04523      1380.1391      4.5087133      1470809.4      113.724        0.02216379   
     97400   305.34952      1352.3341      16.6337        1448467.8      113.14524      0.022505651  
     97500   293.46982      1401.4899      12.340304      1432466.3      112.72705      0.022757053  
     97600   296.58308      1351.5018     -58.072876      1429372.7      112.64584      0.022806306  
     97700   295.47886      1378.0636      7.1667108      1419431.2      112.38408      0.022966038  
     97800   297.95213      1380.671      -3.1664148      1412222.8      112.19351      0.023083263  
     97900   298.28832      1399.1969     -1.7944773      1404784.3      111.99618      0.023205492  
     98000   296.30163      1419.7382      7.4070915      1394672.2      111.7268       0.023373744  
     98100   291.79181      1414.4578      2.0721309      1365167.5      110.93331      0.02387891   
     98200   293.9877       1291.9106     -20.490388      1363351.8      110.88411      0.023910711  
     98300   300.42829      1271.9295      35.286931      1330016.1      109.97289      0.024510012  
     98400   298.05903      1362.7213     -5.6635939      1325168.1      109.83911      0.024599678  
     98500   304.61024      1332.472       10.38531       1314945.2      109.55593      0.024790927  
     98600   302.72027      1353.0385     -42.537729      1328990.7      109.94462      0.024528923  
     98700   300.40564      1342.8405     -36.584736      1327055.9      109.89124      0.024564685  
     98800   287.98973      1374.8864     -1.4454459      1316973        109.61222      0.024752755  
     98900   292.9558       1354.3016     -9.1562468      1310691.7      109.43767      0.024871379  
     99000   303.92832      1345.2056      14.333667      1309005.3      109.39072      0.024903422  
     99100   302.38459      1379.5486     -11.103542      1301591.5      109.18381      0.02504527   
     99200   296.76979      1430.6272     -19.450633      1282037.6      108.63429      0.025427264  
     99300   298.85211      1348.5044     -12.181227      1273649.4      108.39684      0.025594727  
     99400   293.80166      1319.6868      19.447136      1270288.5      108.30141      0.025662447  
     99500   295.81305      1338.1322      40.686944      1253747.4      107.82927      0.02600102   
     99600   303.95094      1335.5682     -23.910078      1243406.4      107.53199      0.026217262  
     99700   295.70913      1423.9119     -15.810666      1217594.7      106.78271      0.026773038  
     99800   295.92531      1424.2231     -1.1203648      1213747.5      106.67012      0.026857902  
     99900   303.56289      1377.8282      36.491021      1195980.8      106.14708      0.027256884  
    100000   300.08658      1441.1306     -47.206069      1194608.2      106.10646      0.027288201  
    100100   311.4434       1350.0806      9.5525289      1178020.1      105.61305      0.027672456  
    100200   301.91081      1400.475      -15.360344      1152221.8      104.83638      0.028292045  
    100300   300.87842      1330.273       50.847623      1135931.6      104.33998      0.028697775  
    100400   289.70133      1399.645      -19.97029       1131291.6      104.19771      0.028815479  
    100500   296.51871      1395.2512      9.7943633      1115550.8      103.71218      0.029222077  
    100600   298.72219      1434.28       -42.026282      1099320.8      103.20676      0.029653502  
    100700   297.81756      1432.2392     -8.870382       1092004.4      102.97729      0.029852177  
    100800   297.04004      1407.9395      61.615311      1070462.5      102.29565      0.030452922  
    100900   296.42352      1375.1572      3.4006877      1053937.5      101.76653      0.030930402  
    101000   295.98644      1315.2485     -8.998751       1030595.3      101.00962      0.031630951  
    101100   294.38443      1267.3769      18.885276      1011858.5      100.39373      0.032216669  
    101200   291.57026      1336.5555     -38.012795      1007446.6      100.24761      0.032357754  
    101300   300.99633      1361.1471     -60.07636       1001923.1      100.06406      0.032536139  
    101400   301.56982      1358.8072     -5.3996395      989131.65      99.636401      0.032956897  
    101500   298.38773      1345.401       0.57525765     977379.82      99.240236      0.033353165  
    101600   295.39907      1336.6674      9.8253123      967385.44      98.90081       0.033697748  
    101700   301.52201      1305.4539     -28.940126      966162.7       98.859123      0.033740394  
    101800   304.64235      1366.7884      2.4705052      950373.44      98.317636      0.034300948  
    101900   309.94293      1308.75       -26.284199      930307.69      97.620764      0.035040783  
    102000   297.14781      1332.6333     -32.710975      919051.44      97.225445      0.035469952  
    102100   298.06912      1316.8498      54.268377      911719.93      96.966224      0.03575518   
    102200   298.3921       1346.6203      30.921188      901980.12      96.619693      0.036141274  
    102300   302.51028      1359.8415     -11.532168      884977.56      96.008736      0.036835635  
    102400   308.99823      1354.6394      24.061707      867702.85      95.379932      0.037568979  
    102500   303.4723       1376.8696      17.826295      875590.56      95.668072      0.037230541  
    102600   293.82061      1360.6383     -29.427713      861253.38      95.14303       0.037850313  
    102700   297.37767      1316.9787     -29.370264      852888.69      94.834011      0.03822153   
    102800   297.67629      1391.0007      28.770274      850939.27      94.761703      0.038309091  
    102900   301.54119      1401.7377     -23.284239      841544.79      94.411684      0.03873675   
    103000   299.69232      1394.2596     -11.364271      837728.02      94.268735      0.038913238  
    103100   296.41885      1374.496       19.401427      828238.15      93.911421      0.039359103  
    103200   295.96024      1349.134       12.214819      813094.66      93.335538      0.040092147  
    103300   299.32578      1309.3942      4.4752984      793637.18      92.585008      0.04107508   
    103400   298.82353      1326.7817     -27.936286      792934.92      92.557691      0.041111458  
    103500   295.66388      1372.3572      24.443646      791198.62      92.490084      0.041201678  
    103600   304.59846      1324.7145      4.3537005      783600.72      92.19307       0.041601174  
    103700   304.39877      1335.0223      15.897104      778857.81      92.006687      0.041854508  
    103800   296.34391      1350.644      -62.648584      774449.73      91.832783      0.042092739  
    103900   291.43959      1337.01       -35.538908      770878.59      91.691412      0.042287736  
    104000   301.30453      1264.2283      53.463739      753397.75      90.993026      0.043268924  
    104100   305.81931      1327.036       45.107077      738486.21      90.388698      0.044142612  
    104200   303.74486      1354.5686     -7.1915593      727486.38      89.937668      0.044810063  
    104300   306.59595      1291.6132      28.865485      720538.9       89.650451      0.045242124  
    104400   295.65438      1342.3267     -60.140164      718899.12      89.582391      0.04534532   
    104500   300.14797      1275.7754      4.1521089      707288.83      89.097517      0.046089672  
    104600   295.97564      1350.7425      49.915631      706049.57      89.04545       0.046170569  
    104700   308.86475      1368.2849      5.116057       703189.22      88.92504       0.046358376  
    104800   303.31673      1384.0687     -55.924138      695875.28      88.615659      0.046845622  
    104900   298.49466      1343.4849     -67.789941      693070.87      88.496457      0.047035176  
    105000   299.3816       1298.8685      39.791052      691376.55      88.424283      0.047150442  
    105100   297.25123      1328.1196      42.529109      692171.17      88.458147      0.047096313  
    105200   302.45004      1325.7906      49.787895      675423.16      87.738859      0.048264129  
    105300   304.50104      1381.1371      18.680377      674580.17      87.702342      0.048324442  
    105400   296.95403      1408.3173      15.788466      667671.77      87.401926      0.048824455  
    105500   291.9429       1375.5267     -5.9480894      663075.5       87.200905      0.049162894  
    105600   298.0141       1325.9843      12.436787      667033.07      87.374048      0.048871205  
    105700   303.40324      1309.454       12.610061      660547.99      87.089967      0.04935101   
    105800   307.08198      1305.2986     -48.14743       650771.83      86.658184      0.050092381  
    105900   302.42183      1319.364      -80.925509      648724.94      86.567232      0.050250435  
    105999   303.22344      1229.8247      57.798506      644480.58      86.378027      0.050581369  
Loop time of 404.58 on 1 procs for 100000 steps with 3108 atoms

Performance: 21.356 ns/day, 1.124 hours/ns, 247.170 timesteps/s
99.6% CPU use with 1 MPI tasks x no OpenMP threads

MPI task timing breakdown:
Section |  min time  |  avg time  |  max time  |%varavg| %total
---------------------------------------------------------------
Pair    | 315.73     | 315.73     | 315.73     |   0.0 | 78.04
Bond    | 29.755     | 29.755     | 29.755     |   0.0 |  7.35
Neigh   | 48.613     | 48.613     | 48.613     |   0.0 | 12.02
Comm    | 0.47468    | 0.47468    | 0.47468    |   0.0 |  0.12
Output  | 2.1141     | 2.1141     | 2.1141     |   0.0 |  0.52
Modify  | 7.4921     | 7.4921     | 7.4921     |   0.0 |  1.85
Other   |            | 0.4024     |            |       |  0.10

Nlocal:           3108 ave        3108 max        3108 min
Histogram: 1 0 0 0 0 0 0 0 0 0
Nghost:           1980 ave        1980 max        1980 min
Histogram: 1 0 0 0 0 0 0 0 0 0
Neighs:         529023 ave      529023 max      529023 min
Histogram: 1 0 0 0 0 0 0 0 0 0

Total # of neighbors = 529023
Ave neighs/atom = 170.21332
Ave special neighs/atom = 11.407979
Neighbor list builds = 6344
Dangerous builds = 689
unfix			1
#final
write_data		post_minimize_nvt_npt_more_steps.data
System init for write_data ...
Generated 78 of 78 mixed pair_coeff terms from geometric mixing rule

#parameter
neighbor		2.0 bin
Total wall time: 0:07:16
