LAMMPS (23 Jun 2022)
# Initialization
units			real
dimension		3
processors		* * *
boundary		p p p
atom_style		full
pair_style		lj/cut 10.0
bond_style		harmonic
angle_style 	harmonic
read_data		crosslinked.data
Reading data file ...
  orthogonal box = (29.81742 26.90292 29.786422) to (60.28958 57.37508 60.258582)
  1 by 1 by 1 MPI processor grid
  reading atoms ...
  2997 atoms
  scanning bonds ...
  4 = max bonds/atom
  scanning angles ...
  6 = max angles/atom
  reading bonds ...
  3049 bonds
  reading angles ...
  5799 angles
Finding 1-2 1-3 1-4 neighbors ...
  special bond factors lj:    0        0        0       
  special bond factors coul:  0        0        0       
     4 = max # of 1-2 neighbors
     7 = max # of 1-3 neighbors
    16 = max # of 1-4 neighbors
    20 = max # of special neighbors
  special bonds CPU = 0.002 seconds
  read_data CPU = 0.018 seconds

#output

thermo			100
thermo_style	custom step temp pe press vol lx density
dump			1 all custom 100 after_cross_linking_latest_1.lammpstrj id type x y z

#intial minimization
minimize		1.0e-5 1.0e-5 10000 10000
WARNING: Using 'neigh_modify every 1 delay 0 check yes' setting during minimization (src/min.cpp:187)
Generated 153 of 153 mixed pair_coeff terms from geometric mixing rule
Neighbor list info ...
  update every 1 steps, delay 0 steps, check yes
  max neighbors/atom: 2000, page size: 100000
  master list distance cutoff = 12
  ghost atom cutoff = 12
  binsize = 6, bins = 6 6 6
  1 neighbor lists, perpetual/occasional/extra = 1 0 0
  (1) pair lj/cut, perpetual
      attributes: half, newton on
      pair build: half/bin/newton
      stencil: half/bin/3d
      bin: standard
WARNING: Inconsistent image flags (src/domain.cpp:819)
Per MPI rank memory allocation (min/avg/max) = 26.68 | 26.68 | 26.68 Mbytes
   Step          Temp          PotEng         Press          Volume           Lx          Density    
         0   0              253108.01     -588148.07      28294.999      30.472159      1.112983     
       100   0              649.95232     -11133.222      28294.999      30.472159      1.112983     
       200   0             -715.32206     -3322.7051      28294.999      30.472159      1.112983     
       300   0             -925.63718     -3301.6591      28294.999      30.472159      1.112983     
       400   0             -1012.2491     -3128.8281      28294.999      30.472159      1.112983     
       500   0             -1049.8501     -3153.8832      28294.999      30.472159      1.112983     
       600   0             -1070.9644     -3312.5467      28294.999      30.472159      1.112983     
       700   0             -1085.9374     -3206.1863      28294.999      30.472159      1.112983     
       800   0             -1103.207      -3148.199       28294.999      30.472159      1.112983     
       900   0             -1121.8106     -2758.5401      28294.999      30.472159      1.112983     
      1000   0             -1134.527      -3089.652       28294.999      30.472159      1.112983     
      1100   0             -1145.2714     -3056.486       28294.999      30.472159      1.112983     
      1200   0             -1155.9225     -2629.3596      28294.999      30.472159      1.112983     
      1300   0             -1164.4034     -2936.1991      28294.999      30.472159      1.112983     
      1400   0             -1169.5233     -2952.0218      28294.999      30.472159      1.112983     
      1500   0             -1173.8305     -2978.0218      28294.999      30.472159      1.112983     
      1600   0             -1177.5894     -2865.4665      28294.999      30.472159      1.112983     
      1700   0             -1180.8418     -2948.3738      28294.999      30.472159      1.112983     
      1800   0             -1183.3588     -3056.5904      28294.999      30.472159      1.112983     
      1900   0             -1185.597      -2908.5335      28294.999      30.472159      1.112983     
      1996   0             -1187.4495     -2985.3459      28294.999      30.472159      1.112983     
Loop time of 48.3095 on 1 procs for 1996 steps with 2997 atoms

99.1% CPU use with 1 MPI tasks x no OpenMP threads

Minimization stats:
  Stopping criterion = energy tolerance
  Energy initial, next-to-last, final = 
       253108.01360867  -1187.44055635315  -1187.44951990759
  Force two-norm initial, final = 29894.723 4.5306102
  Force max component initial, final = 4041.8202 1.3945948
  Final line search alpha, max atom move = 0.019113161 0.026655115
  Iterations, force evaluations = 1996 3915

MPI task timing breakdown:
Section |  min time  |  avg time  |  max time  |%varavg| %total
---------------------------------------------------------------
Pair    | 45.835     | 45.835     | 45.835     |   0.0 | 94.88
Bond    | 0.83823    | 0.83823    | 0.83823    |   0.0 |  1.74
Neigh   | 1.1986     | 1.1986     | 1.1986     |   0.0 |  2.48
Comm    | 0.16741    | 0.16741    | 0.16741    |   0.0 |  0.35
Output  | 0.044385   | 0.044385   | 0.044385   |   0.0 |  0.09
Modify  | 0          | 0          | 0          |   0.0 |  0.00
Other   |            | 0.2261     |            |       |  0.47

Nlocal:           2997 ave        2997 max        2997 min
Histogram: 1 0 0 0 0 0 0 0 0 0
Nghost:          14009 ave       14009 max       14009 min
Histogram: 1 0 0 0 0 0 0 0 0 0
Neighs:    1.13394e+06 ave 1.13394e+06 max 1.13394e+06 min
Histogram: 1 0 0 0 0 0 0 0 0 0

Total # of neighbors = 1133937
Ave neighs/atom = 378.35736
Ave special neighs/atom = 12.110777
Neighbor list builds = 52
Dangerous builds = 0

timestep 1
# nvt for 500 ps
fix			1 all nvt temp 300 300 100
run			500000
Generated 153 of 153 mixed pair_coeff terms from geometric mixing rule
WARNING: Inconsistent image flags (src/domain.cpp:819)
Per MPI rank memory allocation (min/avg/max) = 24.43 | 24.43 | 24.43 Mbytes
   Step          Temp          PotEng         Press          Volume           Lx          Density    
      1996   0             -1187.4495     -2985.3459      28294.999      30.472159      1.112983     
      2000   0.00147383    -1187.4628     -2984.3993      28294.999      30.472159      1.112983     
      2100   0.13624953    -1188.5035     -2987.3673      28294.999      30.472159      1.112983     
      2200   0.23104967    -1188.703      -2991.1351      28294.999      30.472159      1.112983     
      2300   0.32069729    -1188.4639     -3009.1729      28294.999      30.472159      1.112983     
      2400   0.40541202    -1187.7718     -3031.6144      28294.999      30.472159      1.112983     
      2500   0.48954184    -1186.608      -3008.387       28294.999      30.472159      1.112983     
      2600   0.62097543    -1185.3601     -3006.3396      28294.999      30.472159      1.112983     
      2700   0.88767949    -1184.3463     -3015.4818      28294.999      30.472159      1.112983     
      2800   1.3131821     -1183.0347     -3031.0658      28294.999      30.472159      1.112983     
      2900   1.8486873     -1180.1931     -2941.0435      28294.999      30.472159      1.112983     
      3000   2.5905652     -1176.1097     -2924.1588      28294.999      30.472159      1.112983     
      3100   3.8507098     -1171.2705     -2821.3704      28294.999      30.472159      1.112983     
      3200   5.7443896     -1163.9141     -2740.3657      28294.999      30.472159      1.112983     
      3300   7.9820811     -1148.6215     -2567.3009      28294.999      30.472159      1.112983     
      3400   10.715264     -1124.3825     -2748.0168      28294.999      30.472159      1.112983     
      3500   13.750055     -1086.6935     -2105.7075      28294.999      30.472159      1.112983     
      3600   19.544167     -1051.156      -1554.6344      28294.999      30.472159      1.112983     
      3700   27.078536     -994.05954     -1712.0307      28294.999      30.472159      1.112983     
      3800   39.373352     -927.86726     -1642.9121      28294.999      30.472159      1.112983     
      3900   54.618841     -815.72391      141.72465      28294.999      30.472159      1.112983     
      4000   76.435179     -675.15644      848.32971      28294.999      30.472159      1.112983     
      4100   103.69828     -462.68792      1822.7785      28294.999      30.472159      1.112983     
      4200   142.02889     -198.28726      5088.615       28294.999      30.472159      1.112983     
      4300   196.23032      68.938863      5140.1283      28294.999      30.472159      1.112983     
      4400   240.31455      524.31286      5545.1803      28294.999      30.472159      1.112983     
      4500   293.53578      876.47803      7352.3785      28294.999      30.472159      1.112983     
      4600   332.15219      1114.8076      7073.5506      28294.999      30.472159      1.112983     
      4700   326.5799       1243.1111      6803.1992      28294.999      30.472159      1.112983     
      4800   289.89506      1211.6478      5677.3851      28294.999      30.472159      1.112983     
      4900   282.10149      1005.7248      3869.6907      28294.999      30.472159      1.112983     
      5000   280.05428      1018.5835      5440.6957      28294.999      30.472159      1.112983     
      5100   296.08373      1142.4208      5123.0319      28294.999      30.472159      1.112983     
      5200   313.31765      1287.0193      7301.7328      28294.999      30.472159      1.112983     
      5300   315.09698      1350.4941      3421.7574      28294.999      30.472159      1.112983     
      5400   295.88437      1301.2889      5020.1194      28294.999      30.472159      1.112983     
      5500   287.46769      1154.7973      3819.7371      28294.999      30.472159      1.112983     
      5600   287.41424      1145.3428      3349.7696      28294.999      30.472159      1.112983     
      5700   301.2607       1239.7931      2974.9155      28294.999      30.472159      1.112983     
      5800   308.63743      1351.2283      2887.6063      28294.999      30.472159      1.112983     
      5900   304.74584      1320.3059      4268.3246      28294.999      30.472159      1.112983     
      6000   295.88846      1182.0501      2237.4404      28294.999      30.472159      1.112983     
      6100   284.65269      1126.1786      810.82186      28294.999      30.472159      1.112983     
      6200   295.08542      1150.349       1519.1743      28294.999      30.472159      1.112983     
      6300   311.04797      1296.4543      1380.1386      28294.999      30.472159      1.112983     
      6400   316.39414      1390.3389      2528.5818      28294.999      30.472159      1.112983     
      6500   309.81307      1327.5623      3538.4717      28294.999      30.472159      1.112983     
      6600   291.18772      1259.7772      1082.3424      28294.999      30.472159      1.112983     
      6700   289.39121      1202.9729      732.15194      28294.999      30.472159      1.112983     
      6800   296.95835      1250.3229      3382.6648      28294.999      30.472159      1.112983     
      6900   301.85691      1401.6985      2076.8073      28294.999      30.472159      1.112983     
      7000   312.78933      1401.846       3029.4136      28294.999      30.472159      1.112983     
      7100   310.91823      1321.6556      1719.7256      28294.999      30.472159      1.112983     
      7200   296.377        1241.8886     -623.02035      28294.999      30.472159      1.112983     
      7300   285.94554      1224.7624      3660.8505      28294.999      30.472159      1.112983     
      7400   295.15316      1241.8001      2448.9499      28294.999      30.472159      1.112983     
      7500   306.03839      1325.4271      2442.9546      28294.999      30.472159      1.112983     
      7600   307.84686      1405.0536      2416.4014      28294.999      30.472159      1.112983     
      7700   302.74474      1374.2799      214.03047      28294.999      30.472159      1.112983     
      7800   294.26517      1273.5519      3423.9755      28294.999      30.472159      1.112983     
      7900   283.5201       1255.6544      1809.4193      28294.999      30.472159      1.112983     
      8000   291.86988      1283.2876      532.86555      28294.999      30.472159      1.112983     
      8100   301.30092      1403.7274      569.58841      28294.999      30.472159      1.112983     
      8200   302.77268      1498.4662     -891.80107      28294.999      30.472159      1.112983     
      8300   310.1978       1310.7769      748.78271      28294.999      30.472159      1.112983     
      8400   288.6536       1295.1994      2417.1052      28294.999      30.472159      1.112983     
      8500   288.00662      1234.1763      628.5081       28294.999      30.472159      1.112983     
      8600   296.24076      1276.7077      1655.8988      28294.999      30.472159      1.112983     
      8700   302.82466      1389.1745     -506.98677      28294.999      30.472159      1.112983     
      8800   310.09484      1394.8955      1568.8511      28294.999      30.472159      1.112983     
      8900   298.63993      1385.9243     -1111.4937      28294.999      30.472159      1.112983     
      9000   296.1544       1264.5378     -2051.5941      28294.999      30.472159      1.112983     
      9100   294.36691      1226.7159     -830.09194      28294.999      30.472159      1.112983     
      9200   294.66181      1318.8281      951.61478      28294.999      30.472159      1.112983     
      9300   307.40125      1354.8838      761.54194      28294.999      30.472159      1.112983     
      9400   306.81843      1405.9814      1992.0999      28294.999      30.472159      1.112983     
      9500   299.38272      1395.5237      661.96619      28294.999      30.472159      1.112983     
      9600   298.06487      1305.2477      1386.3476      28294.999      30.472159      1.112983     
      9700   288.6143       1358.6637     -2307.6956      28294.999      30.472159      1.112983     
      9800   296.93297      1369.6434      2753.9274      28294.999      30.472159      1.112983     
      9900   305.64258      1423.1789     -1170.112       28294.999      30.472159      1.112983     
     10000   309.6033       1410.8129     -825.49121      28294.999      30.472159      1.112983     
     10100   302.31274      1339.9528      1056.768       28294.999      30.472159      1.112983     
     10200   291.14717      1294.1692     -302.08361      28294.999      30.472159      1.112983     
     10300   292.74264      1261.4058      1521.8706      28294.999      30.472159      1.112983     
     10400   300.50059      1302.3074      874.63446      28294.999      30.472159      1.112983     
     10500   307.9484       1358.64        1298.1786      28294.999      30.472159      1.112983     
     10600   303.75387      1394.5837     -1880.301       28294.999      30.472159      1.112983     
     10700   296.95666      1356.0384     -749.8577       28294.999      30.472159      1.112983     
     10800   295.77079      1296.693       219.15948      28294.999      30.472159      1.112983     
     10900   294.66084      1333.5798      1428.9315      28294.999      30.472159      1.112983     
     11000   300.52985      1375.0351      1167.4565      28294.999      30.472159      1.112983     
     11100   305.13371      1410.9246     -1608.9108      28294.999      30.472159      1.112983     
     11200   306.44029      1374.8767     -172.09212      28294.999      30.472159      1.112983     
     11300   302.18187      1350.7513     -153.27356      28294.999      30.472159      1.112983     
     11400   296.37718      1342.7964     -1707.8132      28294.999      30.472159      1.112983     
     11500   298.76077      1313.1967     -2176.0928      28294.999      30.472159      1.112983     
     11600   297.8857       1378.9433     -806.35135      28294.999      30.472159      1.112983     
     11700   307.02707      1373.1187     -1072.2593      28294.999      30.472159      1.112983     
     11800   303.30045      1400.5317     -2722.646       28294.999      30.472159      1.112983     
     11900   303.28297      1333.5025     -937.45362      28294.999      30.472159      1.112983     
     12000   296.06191      1302.7157     -1323.3537      28294.999      30.472159      1.112983     
     12100   296.16152      1271.1978     -1461.3314      28294.999      30.472159      1.112983     
     12200   294.65733      1337.1752     -154.07787      28294.999      30.472159      1.112983     
     12300   305.11247      1338.7856     -330.64022      28294.999      30.472159      1.112983     
     12400   307.52342      1383.4964     -729.96439      28294.999      30.472159      1.112983     
     12500   303.65727      1390.2032     -2281.1846      28294.999      30.472159      1.112983     
     12600   296.62801      1339.3548      1956.4593      28294.999      30.472159      1.112983     
     12700   293.91473      1284.6158     -1407.8902      28294.999      30.472159      1.112983     
     12800   296.56582      1273.4392     -695.43166      28294.999      30.472159      1.112983     
     12900   298.85942      1361.0037     -1782.6923      28294.999      30.472159      1.112983     
     13000   308.94913      1362.1356     -1001.1517      28294.999      30.472159      1.112983     
     13100   302.49818      1391.722      -218.49797      28294.999      30.472159      1.112983     
     13200   305.7626       1268.8813     -1063.5185      28294.999      30.472159      1.112983     
     13300   298.38618      1234.9862     -2435.6239      28294.999      30.472159      1.112983     
     13400   295.97892      1262.6772     -2469.5052      28294.999      30.472159      1.112983     
     13500   300.98939      1352.0117     -512.22482      28294.999      30.472159      1.112983     
     13600   307.57345      1392.1297      731.1203       28294.999      30.472159      1.112983     
     13700   304.28022      1364.7645      422.0618       28294.999      30.472159      1.112983     
     13800   298.45164      1273.7414     -1813.7131      28294.999      30.472159      1.112983     
     13900   286.13067      1295.0218     -1182.4338      28294.999      30.472159      1.112983     
     14000   294.23731      1267.0234     -2746.9608      28294.999      30.472159      1.112983     
     14100   302.14424      1339.0883     -2312.9772      28294.999      30.472159      1.112983     
     14200   305.45165      1395.434      -889.98908      28294.999      30.472159      1.112983     
     14300   310.66523      1310.9425     -376.70747      28294.999      30.472159      1.112983     
     14400   299.96243      1293.3924      189.01004      28294.999      30.472159      1.112983     
     14500   296.13276      1260.3771     -1637.0535      28294.999      30.472159      1.112983     
     14600   294.40186      1283.3911     -1096.7939      28294.999      30.472159      1.112983     
     14700   296.96801      1353.748       515.91856      28294.999      30.472159      1.112983     
     14800   303.29136      1398.6631     -304.04609      28294.999      30.472159      1.112983     
     14900   306.63625      1378.1236     -1227.9485      28294.999      30.472159      1.112983     
     15000   296.39691      1374.8945      475.5018       28294.999      30.472159      1.112983     
     15100   293.3543       1301.4487      266.69359      28294.999      30.472159      1.112983     
     15200   295.78383      1264.7591     -1631.5882      28294.999      30.472159      1.112983     
     15300   296.84592      1354.5886     -1442.1159      28294.999      30.472159      1.112983     
     15400   311.23746      1330.3435     -1288.0664      28294.999      30.472159      1.112983     
     15500   310.07211      1367.1279     -22.911261      28294.999      30.472159      1.112983     
     15600   305.81466      1324.0315     -461.55712      28294.999      30.472159      1.112983     
     15700   291.81944      1326.2638     -1330.5198      28294.999      30.472159      1.112983     
     15800   297.63022      1231.4392     -1700.2661      28294.999      30.472159      1.112983     
     15900   301.92028      1254.6913     -713.82508      28294.999      30.472159      1.112983     
     16000   302.8722       1341.2673     -1045.492       28294.999      30.472159      1.112983     
     16100   308.14489      1338.5875     -1771.9478      28294.999      30.472159      1.112983     
     16200   296.78481      1402.3042     -1038.8513      28294.999      30.472159      1.112983     
     16300   296.08868      1340.9617     -188.76217      28294.999      30.472159      1.112983     
     16400   292.92087      1330.1494     -1666.0855      28294.999      30.472159      1.112983     
     16500   294.47476      1300.2297     -993.51983      28294.999      30.472159      1.112983     
     16600   299.34489      1279.5828      1025.126       28294.999      30.472159      1.112983     
     16700   304.7264       1287.789       1706.6802      28294.999      30.472159      1.112983     
     16800   298.81918      1385.335       136.8767       28294.999      30.472159      1.112983     
     16900   303.97288      1356.67       -1896.6723      28294.999      30.472159      1.112983     
     17000   298.68685      1390.5492     -120.08506      28294.999      30.472159      1.112983     
     17100   297.03219      1357.2688     -1168.9392      28294.999      30.472159      1.112983     
     17200   300.8624       1300.4764     -2027.7626      28294.999      30.472159      1.112983     
     17300   299.16436      1355.4417     -737.43024      28294.999      30.472159      1.112983     
     17400   302.62538      1360.4815     -91.424898      28294.999      30.472159      1.112983     
     17500   302.12951      1340.2453     -1586.6074      28294.999      30.472159      1.112983     
     17600   297.44926      1323.9566     -2878.1566      28294.999      30.472159      1.112983     
     17700   291.4129       1341.8558     -2568.9708      28294.999      30.472159      1.112983     
     17800   296.19794      1318.3552     -3505.3002      28294.999      30.472159      1.112983     
     17900   298.79188      1349.0431     -121.36426      28294.999      30.472159      1.112983     
     18000   300.54692      1385.5439     -122.90114      28294.999      30.472159      1.112983     
     18100   301.31764      1388.3087     -1017.0898      28294.999      30.472159      1.112983     
     18200   303.07977      1312.7584     -390.66554      28294.999      30.472159      1.112983     
     18300   293.47282      1337.055      -46.112213      28294.999      30.472159      1.112983     
     18400   296.60938      1319.395      -1977.2984      28294.999      30.472159      1.112983     
     18500   298.90069      1366.009      -793.81493      28294.999      30.472159      1.112983     
     18600   301.70444      1383.3191     -1814.9829      28294.999      30.472159      1.112983     
     18700   301.8155       1352.8088     -2001.355       28294.999      30.472159      1.112983     
     18800   302.11425      1284.9729     -179.31801      28294.999      30.472159      1.112983     
     18900   297.15997      1286.0057     -1612.8749      28294.999      30.472159      1.112983     
     19000   294.04766      1330.6508      497.00501      28294.999      30.472159      1.112983     
     19100   300.96987      1327.8861     -2556.6409      28294.999      30.472159      1.112983     
     19200   305.33089      1321.6699     -1200.9066      28294.999      30.472159      1.112983     
     19300   304.23762      1289.3115     -1281.8931      28294.999      30.472159      1.112983     
     19400   296.45144      1307.1324     -1432.6741      28294.999      30.472159      1.112983     
     19500   290.80197      1329.313       1433.8827      28294.999      30.472159      1.112983     
     19600   292.74864      1342.1066     -242.10235      28294.999      30.472159      1.112983     
     19700   301.1363       1331.3986     -2539.0735      28294.999      30.472159      1.112983     
     19800   307.22091      1323.6899      1742.5391      28294.999      30.472159      1.112983     
     19900   308.29649      1272.9783     -1272.7416      28294.999      30.472159      1.112983     
     20000   297.38971      1276.8108     -1016.107       28294.999      30.472159      1.112983     
     20100   298.02807      1249.4554      61.222658      28294.999      30.472159      1.112983     
     20200   298.88502      1302.3303     -1545.9145      28294.999      30.472159      1.112983     
     20300   305.11848      1330.1158     -2209.4495      28294.999      30.472159      1.112983     
     20400   307.3676       1327.374       1361.7049      28294.999      30.472159      1.112983     
     20500   302.57788      1317.2407     -2764.334       28294.999      30.472159      1.112983     
     20600   303.91657      1235.2961     -1177.1786      28294.999      30.472159      1.112983     
     20700   293.03518      1294.9049     -1314.1478      28294.999      30.472159      1.112983     
     20800   301.11818      1266.8828     -1569.5822      28294.999      30.472159      1.112983     
     20900   300.84117      1342.4052     -3547.1063      28294.999      30.472159      1.112983     
     21000   304.55373      1338.9333     -1620.2017      28294.999      30.472159      1.112983     
     21100   305.9202       1276.0408     -2623.9313      28294.999      30.472159      1.112983     
     21200   298.50962      1255.082      -1635.8413      28294.999      30.472159      1.112983     
     21300   296.34637      1255.7241     -2661.9301      28294.999      30.472159      1.112983     
     21400   297.89576      1283.8319     -921.66168      28294.999      30.472159      1.112983     
     21500   303.62092      1309.3068     -1292.8457      28294.999      30.472159      1.112983     
     21600   303.64939      1340.9649     -2154.8666      28294.999      30.472159      1.112983     
     21700   298.25613      1361.5895     -2213.0583      28294.999      30.472159      1.112983     
     21800   295.61489      1321.8492     -2001.1378      28294.999      30.472159      1.112983     
     21900   301.31562      1240.1809     -2323.951       28294.999      30.472159      1.112983     
     22000   294.48039      1331.601      -2861.921       28294.999      30.472159      1.112983     
     22100   294.89663      1372.5696     -946.01656      28294.999      30.472159      1.112983     
     22200   301.68191      1345.0202     -796.42067      28294.999      30.472159      1.112983     
     22300   300.69926      1338.8502     -1021.3975      28294.999      30.472159      1.112983     
     22400   298.12782      1302.3536     -1983.4826      28294.999      30.472159      1.112983     
     22500   296.3021       1265.0742     -3195.56        28294.999      30.472159      1.112983     
     22600   296.23848      1277.5244     -1698.9622      28294.999      30.472159      1.112983     
     22700   302.58342      1281.147      -3558.0239      28294.999      30.472159      1.112983     
     22800   310.72872      1257.7209     -1332.8124      28294.999      30.472159      1.112983     
     22900   301.41581      1327.8409      1872.4882      28294.999      30.472159      1.112983     
     23000   296.35809      1311.6574     -482.61395      28294.999      30.472159      1.112983     
     23100   292.27823      1302.4925     -1396.132       28294.999      30.472159      1.112983     
     23200   299.43013      1278.7425     -993.55351      28294.999      30.472159      1.112983     
     23300   301.73899      1325.457      -1625.5734      28294.999      30.472159      1.112983     
     23400   303.31854      1339.5528     -3328.6853      28294.999      30.472159      1.112983     
     23500   300.58233      1315.5804     -3600.8379      28294.999      30.472159      1.112983     
     23600   293.3204       1322.9297     -1289.3896      28294.999      30.472159      1.112983     
     23700   291.75676      1338.5036     -2299.1196      28294.999      30.472159      1.112983     
     23800   295.97669      1354.3063     -2422.5062      28294.999      30.472159      1.112983     
     23900   303.17969      1335.3731      892.70169      28294.999      30.472159      1.112983     
     24000   303.00144      1334.3527     -3039.732       28294.999      30.472159      1.112983     
     24100   303.24433      1278.5681     -2055.9783      28294.999      30.472159      1.112983     
     24200   291.67598      1311.0803     -55.4518        28294.999      30.472159      1.112983     
     24300   296.27404      1259.2698     -964.36483      28294.999      30.472159      1.112983     
     24400   296.64882      1306.595      -1721.2442      28294.999      30.472159      1.112983     
     24500   301.94301      1327.4396     -1961.8088      28294.999      30.472159      1.112983     
     24600   306.04272      1327.2658     -3238.3773      28294.999      30.472159      1.112983     
     24700   301.3528       1336.8142     -955.03347      28294.999      30.472159      1.112983     
     24800   298.09377      1283.7199      1696.5798      28294.999      30.472159      1.112983     
     24900   291.65245      1284.0486     -129.66847      28294.999      30.472159      1.112983     
     25000   295.22965      1283.37       -2486.8838      28294.999      30.472159      1.112983     
     25100   299.55907      1332.3206     -2452.6905      28294.999      30.472159      1.112983     
     25200   307.84086      1308.3885     -4276.41        28294.999      30.472159      1.112983     
     25300   299.51021      1343.6281     -3458.9703      28294.999      30.472159      1.112983     
     25400   304.84666      1211.1323     -2505.6226      28294.999      30.472159      1.112983     
     25500   293.78249      1255.4236     -3945.5258      28294.999      30.472159      1.112983     
     25600   298.96009      1258.1806     -1736.8826      28294.999      30.472159      1.112983     
     25700   304.62164      1299.8665     -4140.7743      28294.999      30.472159      1.112983     
     25800   306.03565      1350.6775     -1236.2285      28294.999      30.472159      1.112983     
     25900   308.82958      1302.4682     -1573.1954      28294.999      30.472159      1.112983     
     26000   296.49233      1316.4916      32.685389      28294.999      30.472159      1.112983     
     26100   293.03011      1252.1985     -194.01027      28294.999      30.472159      1.112983     
     26200   299.58976      1204.9502     -2621.2452      28294.999      30.472159      1.112983     
     26300   303.85837      1254.0946     -835.90362      28294.999      30.472159      1.112983     
     26400   303.73773      1345.5544     -1802.1089      28294.999      30.472159      1.112983     
     26500   301.48034      1356.8384     -1556.39        28294.999      30.472159      1.112983     
     26600   295.61824      1309.53       -1451.6385      28294.999      30.472159      1.112983     
     26700   293.65256      1235.1039     -2235.6708      28294.999      30.472159      1.112983     
     26800   299.91144      1205.3107     -1219.6335      28294.999      30.472159      1.112983     
     26900   302.41345      1291.4213     -1900.2242      28294.999      30.472159      1.112983     
     27000   309.99111      1314.7884     -1566.3833      28294.999      30.472159      1.112983     
     27100   306.29157      1332.2766     -1537.975       28294.999      30.472159      1.112983     
     27200   302.14669      1291.418      -3363.3956      28294.999      30.472159      1.112983     
     27300   294.2767       1299.9538     -1584.1921      28294.999      30.472159      1.112983     
     27400   297.73412      1264.0802     -523.04988      28294.999      30.472159      1.112983     
     27500   302.28085      1291.1218     -1686.7368      28294.999      30.472159      1.112983     
     27600   309.90803      1306.8428     -2327.028       28294.999      30.472159      1.112983     
     27700   310.55514      1310.4215     -2305.0357      28294.999      30.472159      1.112983     
     27800   300.15068      1327.3352     -1903.2753      28294.999      30.472159      1.112983     
     27900   297.11678      1292.6125      791.06285      28294.999      30.472159      1.112983     
     28000   301.11735      1249.0899      519.33409      28294.999      30.472159      1.112983     
     28100   302.78642      1271.3035     -2918.4137      28294.999      30.472159      1.112983     
     28200   302.33006      1322.9203     -1284.0093      28294.999      30.472159      1.112983     
     28300   301.93789      1343.6417     -808.84484      28294.999      30.472159      1.112983     
     28400   299.03716      1318.3451     -3753.7007      28294.999      30.472159      1.112983     
     28500   296.20508      1270.7028     -1491.5368      28294.999      30.472159      1.112983     
     28600   292.41152      1285.7906     -2378.1386      28294.999      30.472159      1.112983     
     28700   291.43539      1349.3403     -2197.2798      28294.999      30.472159      1.112983     
     28800   304.53785      1312.3883     -1058.2605      28294.999      30.472159      1.112983     
     28900   300.9227       1377.2631     -3517.2586      28294.999      30.472159      1.112983     
     29000   302.02221      1306.883      -2673.5235      28294.999      30.472159      1.112983     
     29100   298.7922       1243.7192     -3514.7203      28294.999      30.472159      1.112983     
     29200   299.43895      1223.8645     -2113.7338      28294.999      30.472159      1.112983     
     29300   304.0977       1230.8744     -260.36233      28294.999      30.472159      1.112983     
     29400   303.75728      1293.945      -458.97973      28294.999      30.472159      1.112983     
     29500   307.19282      1306.986      -232.63171      28294.999      30.472159      1.112983     
     29600   302.83563      1325.1238     -1382.3086      28294.999      30.472159      1.112983     
     29700   296.63086      1308.8681     -2023.3389      28294.999      30.472159      1.112983     
     29800   295.8581       1246.5176      1189.5664      28294.999      30.472159      1.112983     
     29900   291.50179      1276.3322     -2344.0071      28294.999      30.472159      1.112983     
     30000   299.7483       1263.6562     -1268.1929      28294.999      30.472159      1.112983     
     30100   297.11466      1351.0045     -2223.1346      28294.999      30.472159      1.112983     
     30200   303.54138      1325.2513     -2156.5308      28294.999      30.472159      1.112983     
     30300   302.2748       1311.096      -529.80421      28294.999      30.472159      1.112983     
     30400   301.00992      1281.5519     -1003.3886      28294.999      30.472159      1.112983     
     30500   297.81291      1267.2981     -717.92827      28294.999      30.472159      1.112983     
     30600   296.19203      1288.9317     -926.66939      28294.999      30.472159      1.112983     
     30700   298.26238      1303.8152     -1384.9127      28294.999      30.472159      1.112983     
     30800   303.71078      1289.3893     -2715.35        28294.999      30.472159      1.112983     
     30900   296.98244      1361.1139     -1942.7317      28294.999      30.472159      1.112983     
     31000   292.78124      1368.6725      193.1053       28294.999      30.472159      1.112983     
     31100   300.43884      1276.5298     -2051.141       28294.999      30.472159      1.112983     
     31200   299.99803      1287.6762     -1195.743       28294.999      30.472159      1.112983     
     31300   298.29808      1330.3791     -580.49243      28294.999      30.472159      1.112983     
     31400   305.74347      1290.8009     -1809.1385      28294.999      30.472159      1.112983     
     31500   301.57977      1316.4019     -1379.8886      28294.999      30.472159      1.112983     
     31600   295.77118      1338.0865     -1828.5323      28294.999      30.472159      1.112983     
     31700   297.31671      1320.1099     -2677.5224      28294.999      30.472159      1.112983     
     31800   302.43539      1276.4726     -3596.5497      28294.999      30.472159      1.112983     
     31900   299.49356      1319.959      -951.74757      28294.999      30.472159      1.112983     
     32000   307.81212      1249.0165     -2242.5197      28294.999      30.472159      1.112983     
     32100   301.12107      1297.0207     -1250.4318      28294.999      30.472159      1.112983     
     32200   298.62617      1321.2376      1093.5642      28294.999      30.472159      1.112983     
     32300   300.15622      1294.9245     -1061.1644      28294.999      30.472159      1.112983     
     32400   296.93174      1298.2627     -988.85887      28294.999      30.472159      1.112983     
     32500   292.09393      1358.2442     -563.95777      28294.999      30.472159      1.112983     
     32600   298.45979      1360.6429     -1.5261283      28294.999      30.472159      1.112983     
     32700   301.95806      1372.0046     -2729.4671      28294.999      30.472159      1.112983     
     32800   303.42114      1353.9167     -621.32003      28294.999      30.472159      1.112983     
     32900   298.05968      1328.0055     -2271.8955      28294.999      30.472159      1.112983     
     33000   298.6109       1259.0497     -3603.2822      28294.999      30.472159      1.112983     
     33100   297.86711      1270.8979     -3794.638       28294.999      30.472159      1.112983     
     33200   295.39152      1347.016      -233.82106      28294.999      30.472159      1.112983     
     33300   298.7998       1366.1064     -2529.085       28294.999      30.472159      1.112983     
     33400   303.49129      1317.1642     -1461.5496      28294.999      30.472159      1.112983     
     33500   294.98487      1339.094      -545.44756      28294.999      30.472159      1.112983     
     33600   301.30127      1225.695      -2112.2536      28294.999      30.472159      1.112983     
     33700   296.81687      1270.5953     -3185.3945      28294.999      30.472159      1.112983     
     33800   308.12869      1227.678      -1526.2135      28294.999      30.472159      1.112983     
     33900   298.68909      1347.6276     -1567.278       28294.999      30.472159      1.112983     
     34000   302.46207      1310.3527     -4142.0093      28294.999      30.472159      1.112983     
     34100   297.05839      1318.5074     -2716.0969      28294.999      30.472159      1.112983     
     34200   299.46484      1243.4223     -1989.2362      28294.999      30.472159      1.112983     
     34300   298.95103      1233.303      -3465.9671      28294.999      30.472159      1.112983     
     34400   299.02742      1292.4596     -2772.0559      28294.999      30.472159      1.112983     
     34500   304.88015      1328.3174     -1038.6082      28294.999      30.472159      1.112983     
     34600   308.04983      1294.8419      1268.3858      28294.999      30.472159      1.112983     
     34700   299.55806      1314.4026      93.436341      28294.999      30.472159      1.112983     
     34800   298.81257      1296.7837     -727.54028      28294.999      30.472159      1.112983     
     34900   301.26138      1269.0745     -862.77257      28294.999      30.472159      1.112983     
     35000   304.13501      1253.0206     -635.57626      28294.999      30.472159      1.112983     
     35100   299.28311      1311.5974     -2001.423       28294.999      30.472159      1.112983     
     35200   301.48205      1308.0773     -1557.5998      28294.999      30.472159      1.112983     
     35300   301.84328      1238.4434     -3114.8341      28294.999      30.472159      1.112983     
     35400   296.39436      1214.7038     -2633.9848      28294.999      30.472159      1.112983     
     35500   290.08825      1312.4482     -2457.556       28294.999      30.472159      1.112983     
     35600   298.60057      1320.5148     -2278.8037      28294.999      30.472159      1.112983     
     35700   300.70702      1312.3275     -3869.1039      28294.999      30.472159      1.112983     
     35800   296.11524      1322.3429     -1987.0604      28294.999      30.472159      1.112983     
     35900   293.4244       1292.9624     -2684.4168      28294.999      30.472159      1.112983     
     36000   288.56406      1261.8888     -1669.5112      28294.999      30.472159      1.112983     
     36100   299.32317      1213.1833     -2620.6352      28294.999      30.472159      1.112983     
     36200   301.33706      1287.2093     -2812.2342      28294.999      30.472159      1.112983     
     36300   299.79376      1310.4941     -2328.5868      28294.999      30.472159      1.112983     
     36400   296.60517      1323.908       92.161817      28294.999      30.472159      1.112983     
     36500   295.17597      1276.2529     -1014.2488      28294.999      30.472159      1.112983     
     36600   291.70691      1244.2127     -1069.4851      28294.999      30.472159      1.112983     
     36700   296.09856      1242.3228     -2127.3616      28294.999      30.472159      1.112983     
     36800   299.38632      1327.5229     -553.24912      28294.999      30.472159      1.112983     
     36900   308.40009      1256.2198     -1971.6432      28294.999      30.472159      1.112983     
     37000   300.60739      1293.4442     -2874.0876      28294.999      30.472159      1.112983     
     37100   299.12679      1242.8713     -650.58879      28294.999      30.472159      1.112983     
     37200   293.48767      1291.0144     -2827.0903      28294.999      30.472159      1.112983     
     37300   303.5769       1317.0021     -1293.4679      28294.999      30.472159      1.112983     
     37400   300.5982       1363.8454     -3752.7754      28294.999      30.472159      1.112983     
     37500   297.13502      1340.3132     -3618.7837      28294.999      30.472159      1.112983     
     37600   293.42601      1322.8021     -1389.8014      28294.999      30.472159      1.112983     
     37700   299.1197       1265.3594     -2058.4162      28294.999      30.472159      1.112983     
     37800   302.51026      1313.3657     -4172.0138      28294.999      30.472159      1.112983     
     37900   302.83381      1375.9178     -3298.1926      28294.999      30.472159      1.112983     
     38000   299.96674      1333.8885     -2447.6642      28294.999      30.472159      1.112983     
     38100   294.13987      1324.5115     -1199.4487      28294.999      30.472159      1.112983     
     38200   295.02924      1308.3406     -1544.1927      28294.999      30.472159      1.112983     
     38300   301.34352      1281.4334     -1469.7701      28294.999      30.472159      1.112983     
     38400   305.7246       1339.0752     -2440.5582      28294.999      30.472159      1.112983     
     38500   307.19225      1363.6151     -2300.1928      28294.999      30.472159      1.112983     
     38600   300.42744      1368.8616     -1121.9179      28294.999      30.472159      1.112983     
     38700   299.33561      1343.8783     -1904.1609      28294.999      30.472159      1.112983     
     38800   294.75113      1359.844      -2717.9725      28294.999      30.472159      1.112983     
     38900   297.72384      1283.7927     -2802.9227      28294.999      30.472159      1.112983     
     39000   291.34404      1275.3753     -3437.6713      28294.999      30.472159      1.112983     
     39100   289.80247      1306.9493     -1907.5332      28294.999      30.472159      1.112983     
     39200   299.83916      1342.0929     -2253.1612      28294.999      30.472159      1.112983     
     39300   303.69954      1339.8252     -1067.236       28294.999      30.472159      1.112983     
     39400   304.17944      1316.6305     -2707.8768      28294.999      30.472159      1.112983     
     39500   293.94433      1344.7879     -3696.3499      28294.999      30.472159      1.112983     
     39600   297.00546      1269.1692     -3765.188       28294.999      30.472159      1.112983     
     39700   298.48177      1283.3109     -1576.7622      28294.999      30.472159      1.112983     
     39800   306.61121      1336.6185     -1014.0319      28294.999      30.472159      1.112983     
     39900   306.62029      1314.6656     -668.89992      28294.999      30.472159      1.112983     
     40000   299.53597      1298.2136     -1733.281       28294.999      30.472159      1.112983     
     40100   301.25846      1254.6761      195.42854      28294.999      30.472159      1.112983     
     40200   299.14201      1275.4973     -958.6986       28294.999      30.472159      1.112983     
     40300   301.24241      1324.7361     -606.83028      28294.999      30.472159      1.112983     
     40400   311.81859      1295.2134     -1370.7076      28294.999      30.472159      1.112983     
     40500   304.56403      1311.8556      491.63032      28294.999      30.472159      1.112983     
     40600   297.57741      1316.3627      116.69194      28294.999      30.472159      1.112983     
     40700   294.97159      1336.5628     -1937.1626      28294.999      30.472159      1.112983     
     40800   304.34346      1273.2136     -241.94671      28294.999      30.472159      1.112983     
     40900   302.29216      1305.6087     -1406.659       28294.999      30.472159      1.112983     
     41000   302.83415      1281.456      -1879.8057      28294.999      30.472159      1.112983     
     41100   294.84838      1282.3335     -1541.9825      28294.999      30.472159      1.112983     
     41200   298.70896      1227.649      -1322.4825      28294.999      30.472159      1.112983     
     41300   302.27237      1279.7399     -1297.1459      28294.999      30.472159      1.112983     
     41400   299.52612      1350.3888      218.57672      28294.999      30.472159      1.112983     
     41500   297.50406      1352.5182     -2915.2247      28294.999      30.472159      1.112983     
     41600   301.09739      1281.8378     -1010.3832      28294.999      30.472159      1.112983     
     41700   289.36489      1280.8169      926.23154      28294.999      30.472159      1.112983     
     41800   296.85153      1208.7758     -2415.9149      28294.999      30.472159      1.112983     
     41900   301.94771      1234.5247     -3599.3809      28294.999      30.472159      1.112983     
     42000   302.69895      1255.8805     -1263.4346      28294.999      30.472159      1.112983     
     42100   305.21358      1252.1599     -1303.3885      28294.999      30.472159      1.112983     
     42200   305.97796      1257.8523     -1002.8691      28294.999      30.472159      1.112983     
     42300   297.35481      1321.4756     -156.65496      28294.999      30.472159      1.112983     
     42400   295.55174      1306.183      -1529.7392      28294.999      30.472159      1.112983     
     42500   295.3384       1301.5557     -1032.7793      28294.999      30.472159      1.112983     
     42600   301.89157      1314.2526     -1746.7835      28294.999      30.472159      1.112983     
     42700   302.05485      1351.8827      806.2051       28294.999      30.472159      1.112983     
     42800   301.07805      1347.7349      225.13312      28294.999      30.472159      1.112983     
     42900   301.36011      1226.2666      474.41014      28294.999      30.472159      1.112983     
     43000   301.63981      1204.0854      301.34235      28294.999      30.472159      1.112983     
     43100   300.55732      1258.2181      480.04691      28294.999      30.472159      1.112983     
     43200   301.28282      1319.7671      443.42212      28294.999      30.472159      1.112983     
     43300   306.16322      1298.5078     -943.14667      28294.999      30.472159      1.112983     
     43400   291.72759      1402.9549     -2213.837       28294.999      30.472159      1.112983     
     43500   302.64476      1286.4177     -1342.7182      28294.999      30.472159      1.112983     
     43600   301.72042      1268.0646     -333.87322      28294.999      30.472159      1.112983     
     43700   298.39128      1252.7762      438.74961      28294.999      30.472159      1.112983     
     43800   295.5189       1222.3129      560.18055      28294.999      30.472159      1.112983     
     43900   299.66054      1215.347      -2803.9851      28294.999      30.472159      1.112983     
     44000   296.56664      1346.3952     -1087.0144      28294.999      30.472159      1.112983     
     44100   305.66674      1281.6664     -2141.5761      28294.999      30.472159      1.112983     
     44200   304.06418      1262.967      -1777.3295      28294.999      30.472159      1.112983     
     44300   293.36774      1281.4603     -2077.4755      28294.999      30.472159      1.112983     
     44400   297.56581      1213.634       362.79844      28294.999      30.472159      1.112983     
     44500   299.45601      1298.4929     -2188.9235      28294.999      30.472159      1.112983     
     44600   297.28117      1378.2879      774.29142      28294.999      30.472159      1.112983     
     44700   303.02482      1290.0096     -845.75541      28294.999      30.472159      1.112983     
     44800   298.37195      1257.4779     -3037.5928      28294.999      30.472159      1.112983     
     44900   295.23275      1257.5036     -225.67977      28294.999      30.472159      1.112983     
     45000   296.72644      1291.7434      691.59288      28294.999      30.472159      1.112983     
     45100   304.9713       1313.3163     -1807.033       28294.999      30.472159      1.112983     
     45200   307.10272      1276.2867      133.89641      28294.999      30.472159      1.112983     
     45300   301.79109      1279.1558     -1424.1751      28294.999      30.472159      1.112983     
     45400   296.98789      1269.9091     -172.203        28294.999      30.472159      1.112983     
     45500   299.3904       1227.5843      774.04776      28294.999      30.472159      1.112983     
     45600   295.25798      1325.4127     -1448.5231      28294.999      30.472159      1.112983     
     45700   311.30885      1261.4819     -2025.7728      28294.999      30.472159      1.112983     
     45800   305.14992      1280.5024      718.83639      28294.999      30.472159      1.112983     
     45900   297.97372      1274.6617     -2024.0282      28294.999      30.472159      1.112983     
     46000   296.42976      1282.58       -778.44338      28294.999      30.472159      1.112983     
     46100   301.63366      1263.6911     -149.74388      28294.999      30.472159      1.112983     
     46200   303.32856      1264.7649     -839.05603      28294.999      30.472159      1.112983     
     46300   302.7562       1270.7159     -243.29634      28294.999      30.472159      1.112983     
     46400   305.79434      1239.3193     -1242.8577      28294.999      30.472159      1.112983     
     46500   297.27031      1289.3826      284.75166      28294.999      30.472159      1.112983     
     46600   293.55137      1250.1871      359.42414      28294.999      30.472159      1.112983     
     46700   290.01558      1240.5409     -270.524        28294.999      30.472159      1.112983     
     46800   300.16497      1230.3626     -750.66465      28294.999      30.472159      1.112983     
     46900   302.93702      1263.0768     -1834.9218      28294.999      30.472159      1.112983     
     47000   299.33632      1313.0418      616.30314      28294.999      30.472159      1.112983     
     47100   302.44463      1279.7847     -1088.5306      28294.999      30.472159      1.112983     
     47200   298.98868      1251.7667     -248.67472      28294.999      30.472159      1.112983     
     47300   296.02696      1207.9613      301.03911      28294.999      30.472159      1.112983     
     47400   296.71135      1233.7401     -507.46931      28294.999      30.472159      1.112983     
     47500   303.49171      1271.634      -1757.2279      28294.999      30.472159      1.112983     
     47600   302.30187      1304.7981      1271.0968      28294.999      30.472159      1.112983     
     47700   296.45622      1332.6239     -938.6698       28294.999      30.472159      1.112983     
     47800   302.09592      1236.1873     -1698.6706      28294.999      30.472159      1.112983     
     47900   297.4001       1269.3829     -3364.2123      28294.999      30.472159      1.112983     
     48000   306.51336      1267.4294     -2817.4719      28294.999      30.472159      1.112983     
     48100   305.15374      1323.0798     -2418.4207      28294.999      30.472159      1.112983     
     48200   300.88141      1313.3697     -2125.5798      28294.999      30.472159      1.112983     
     48300   296.25104      1270.8131     -422.66321      28294.999      30.472159      1.112983     
     48400   299.92283      1230.178      -2852.2334      28294.999      30.472159      1.112983     
     48500   300.46885      1270.1051      210.4629       28294.999      30.472159      1.112983     
     48600   299.51613      1333.6895      259.0138       28294.999      30.472159      1.112983     
     48700   301.04242      1318.3329     -167.706        28294.999      30.472159      1.112983     
     48800   300.45546      1256.7753     -1261.3138      28294.999      30.472159      1.112983     
     48900   299.36371      1166.3191     -1942.361       28294.999      30.472159      1.112983     
     49000   293.70416      1244.2502     -1603.4299      28294.999      30.472159      1.112983     
     49100   300.46956      1245.6847      186.76386      28294.999      30.472159      1.112983     
     49200   299.64214      1288.5201      115.34248      28294.999      30.472159      1.112983     
     49300   300.20159      1300.4899     -718.29546      28294.999      30.472159      1.112983     
     49400   302.28439      1312.626      -1322.0662      28294.999      30.472159      1.112983     
     49500   305.42001      1331.8453     -1011.0738      28294.999      30.472159      1.112983     
     49600   300.08319      1331.0814     -643.67272      28294.999      30.472159      1.112983     
     49700   298.37631      1274.3818     -1200.4937      28294.999      30.472159      1.112983     
     49800   301.20442      1226.5563     -160.92407      28294.999      30.472159      1.112983     
     49900   299.3369       1259.8483     -1048.9729      28294.999      30.472159      1.112983     
     50000   302.55382      1335.0474     -3041.4072      28294.999      30.472159      1.112983     
     50100   308.41476      1305.1406     -548.84542      28294.999      30.472159      1.112983     
     50200   299.53343      1315.1277     -2247.2464      28294.999      30.472159      1.112983     
     50300   292.97307      1335.6767     -2347.8557      28294.999      30.472159      1.112983     
     50400   298.36871      1289.2506     -2692.9133      28294.999      30.472159      1.112983     
     50500   298.60846      1308.8552     -3301.4268      28294.999      30.472159      1.112983     
     50600   301.24321      1319.5397     -2630.4683      28294.999      30.472159      1.112983     
     50700   301.00872      1367.6551     -1754.8791      28294.999      30.472159      1.112983     
     50800   302.41332      1360.816      -3007.1615      28294.999      30.472159      1.112983     
     50900   301.70122      1282.7796     -1109.4062      28294.999      30.472159      1.112983     
     51000   296.7638       1276.9211     -1136.0099      28294.999      30.472159      1.112983     
     51100   294.85788      1312.1904     -1666.597       28294.999      30.472159      1.112983     
     51200   305.83238      1297.5963     -1619.3187      28294.999      30.472159      1.112983     
     51300   305.19457      1326.6807     -1040.922       28294.999      30.472159      1.112983     
     51400   304.33845      1301.8972     -2160.0236      28294.999      30.472159      1.112983     
     51500   300.34476      1307.4691     -1630.2013      28294.999      30.472159      1.112983     
     51600   299.53972      1267.6415     -1235.4531      28294.999      30.472159      1.112983     
     51700   296.6553       1246.921      -1115.6231      28294.999      30.472159      1.112983     
     51800   304.51795      1228.5133     -781.28312      28294.999      30.472159      1.112983     
     51900   305.68307      1321.5422      528.21756      28294.999      30.472159      1.112983     
     52000   310.50383      1269.258      -2567.0703      28294.999      30.472159      1.112983     
     52100   303.83639      1280.1484     -1290.0556      28294.999      30.472159      1.112983     
     52200   297.41429      1284.4247      242.10632      28294.999      30.472159      1.112983     
     52300   300.37976      1235.8642     -1032.4446      28294.999      30.472159      1.112983     
     52400   302.11204      1269.2406     -1885.1068      28294.999      30.472159      1.112983     
     52500   300.40397      1385.4436     -35.809867      28294.999      30.472159      1.112983     
     52600   307.58857      1288.8817     -961.4179       28294.999      30.472159      1.112983     
     52700   302.18598      1253.6074     -902.98454      28294.999      30.472159      1.112983     
     52800   299.69964      1249.3617     -1382.9718      28294.999      30.472159      1.112983     
     52900   292.66636      1336.1786     -1620.4213      28294.999      30.472159      1.112983     
     53000   302.21769      1311.3854     -441.28287      28294.999      30.472159      1.112983     
     53100   306.21116      1366.0214      181.10049      28294.999      30.472159      1.112983     
     53200   310.07829      1408.8695     -566.09018      28294.999      30.472159      1.112983     
     53300   308.14977      1299.8456     -1236.2416      28294.999      30.472159      1.112983     
     53400   295.49681      1335.6298     -765.82678      28294.999      30.472159      1.112983     
     53500   297.50054      1289.8517     -3375.0477      28294.999      30.472159      1.112983     
     53600   299.93077      1248.8579     -2053.3911      28294.999      30.472159      1.112983     
     53700   301.18515      1259.9179     -2446.6009      28294.999      30.472159      1.112983     
     53800   300.9642       1331.5121      52.152102      28294.999      30.472159      1.112983     
     53900   306.90149      1290.373      -864.43061      28294.999      30.472159      1.112983     
     54000   298.93081      1253.8275      73.887637      28294.999      30.472159      1.112983     
     54100   294.47525      1257.919       194.77903      28294.999      30.472159      1.112983     
     54200   301.7176       1246.2304     -1517.0744      28294.999      30.472159      1.112983     
     54300   301.68628      1301.4599     -784.45755      28294.999      30.472159      1.112983     
     54400   296.86171      1338.2714     -1068.1466      28294.999      30.472159      1.112983     
     54500   297.47714      1299.3746     -1960.6924      28294.999      30.472159      1.112983     
     54600   297.31058      1210.28       -654.71385      28294.999      30.472159      1.112983     
     54700   285.96871      1239.7901     -1067.6033      28294.999      30.472159      1.112983     
     54800   297.88705      1209.5418     -1362.5573      28294.999      30.472159      1.112983     
     54900   298.74479      1271.9905     -1015.1634      28294.999      30.472159      1.112983     
     55000   305.38685      1253.4673     -922.0438       28294.999      30.472159      1.112983     
     55100   300.35193      1302.9537     -459.13093      28294.999      30.472159      1.112983     
     55200   293.53956      1283.1394     -2241.7234      28294.999      30.472159      1.112983     
     55300   294.8973       1213.9613      287.21653      28294.999      30.472159      1.112983     
     55400   292.91884      1282.4875     -2447.4091      28294.999      30.472159      1.112983     
     55500   297.11063      1287.4594     -1671.4423      28294.999      30.472159      1.112983     
     55600   302.11042      1283.1619     -905.15279      28294.999      30.472159      1.112983     
     55700   307.7497       1257.4654     -1123.117       28294.999      30.472159      1.112983     
     55800   299.72009      1299.8954     -2826.4761      28294.999      30.472159      1.112983     
     55900   303.08884      1167.947      -2489.9445      28294.999      30.472159      1.112983     
     56000   295.88234      1237.3401     -1418.9913      28294.999      30.472159      1.112983     
     56100   302.06173      1259.1473     -1880.1677      28294.999      30.472159      1.112983     
     56200   299.48182      1302.8927     -598.2484       28294.999      30.472159      1.112983     
     56300   301.35052      1274.4517     -337.31582      28294.999      30.472159      1.112983     
     56400   301.03521      1251.8753     -861.79666      28294.999      30.472159      1.112983     
     56500   300.1588       1174.399       217.50117      28294.999      30.472159      1.112983     
     56600   290.13469      1227.008      -492.54671      28294.999      30.472159      1.112983     
     56700   294.82022      1274.9316     -999.08197      28294.999      30.472159      1.112983     
     56800   297.79774      1300.6511      302.31538      28294.999      30.472159      1.112983     
     56900   302.7549       1265.2186     -1264.2925      28294.999      30.472159      1.112983     
     57000   294.05383      1337.7352     -738.99752      28294.999      30.472159      1.112983     
     57100   302.66979      1240.045      -2817.2632      28294.999      30.472159      1.112983     
     57200   291.90022      1256.4667     -2318.089       28294.999      30.472159      1.112983     
     57300   294.16297      1243.7621     -1944.0865      28294.999      30.472159      1.112983     
     57400   301.0147       1277.5666     -1882.7416      28294.999      30.472159      1.112983     
     57500   303.16561      1282.0171     -1851.0392      28294.999      30.472159      1.112983     
     57600   300.00315      1293.4823     -2430.1027      28294.999      30.472159      1.112983     
     57700   297.64538      1293.3258     -2128.2711      28294.999      30.472159      1.112983     
     57800   295.32267      1282.8011     -2454.7445      28294.999      30.472159      1.112983     
     57900   297.07115      1211.6038     -2392.6089      28294.999      30.472159      1.112983     
     58000   295.83421      1242.0999     -1939.1117      28294.999      30.472159      1.112983     
     58100   295.41225      1344.8534     -3251.583       28294.999      30.472159      1.112983     
     58200   302.5086       1307.7112     -1771.4338      28294.999      30.472159      1.112983     
     58300   293.59206      1347.4221     -1061.3838      28294.999      30.472159      1.112983     
     58400   289.99875      1324.5006     -259.28874      28294.999      30.472159      1.112983     
     58500   295.55477      1257.1475     -22.231368      28294.999      30.472159      1.112983     
     58600   310.62091      1241.3016     -2371.1538      28294.999      30.472159      1.112983     
     58700   307.13934      1294.6303     -1094.0986      28294.999      30.472159      1.112983     
     58800   302.90076      1264.8156      1509.105       28294.999      30.472159      1.112983     
     58900   304.44969      1213.6851      515.70378      28294.999      30.472159      1.112983     
     59000   300.96565      1235.2949      1910.3567      28294.999      30.472159      1.112983     
     59100   296.99792      1272.7514     -1281.4708      28294.999      30.472159      1.112983     
     59200   300.61614      1307.3696     -2154.3664      28294.999      30.472159      1.112983     
     59300   297.36998      1374.0214     -924.2995       28294.999      30.472159      1.112983     
     59400   308.49618      1257.3542      142.67492      28294.999      30.472159      1.112983     
     59500   298.30104      1255.5521     -460.10284      28294.999      30.472159      1.112983     
     59600   292.97796      1281.9382     -3128.2416      28294.999      30.472159      1.112983     
     59700   299.58249      1258.6799     -1929.3443      28294.999      30.472159      1.112983     
     59800   305.18569      1249.5314     -1793.5549      28294.999      30.472159      1.112983     
     59900   298.92683      1310.3733     -1820.6519      28294.999      30.472159      1.112983     
     60000   301.6524       1265.2223     -296.1217       28294.999      30.472159      1.112983     
     60100   298.74827      1278.3482     -98.071791      28294.999      30.472159      1.112983     
     60200   299.56965      1269.0164      1151.2782      28294.999      30.472159      1.112983     
     60300   296.00111      1310.4223     -237.20802      28294.999      30.472159      1.112983     
     60400   302.39335      1295.4817      135.66547      28294.999      30.472159      1.112983     
     60500   304.76284      1312.2264     -1645.7765      28294.999      30.472159      1.112983     
     60600   297.76415      1319.3367      561.65834      28294.999      30.472159      1.112983     
     60700   297.2628       1260.4371      311.68503      28294.999      30.472159      1.112983     
     60800   294.58383      1280.9935     -241.81533      28294.999      30.472159      1.112983     
     60900   301.28699      1307.6615     -1644.292       28294.999      30.472159      1.112983     
     61000   306.23462      1332.0431      165.3744       28294.999      30.472159      1.112983     
     61100   300.60223      1336.2912     -1740.9161      28294.999      30.472159      1.112983     
     61200   299.89757      1278.7719     -2302.8426      28294.999      30.472159      1.112983     
     61300   296.62913      1275.4151     -1968.4435      28294.999      30.472159      1.112983     
     61400   297.43493      1300.7973     -4226.999       28294.999      30.472159      1.112983     
     61500   301.85002      1342.4938     -3068.6633      28294.999      30.472159      1.112983     
     61600   299.24356      1400.7278     -1256.7475      28294.999      30.472159      1.112983     
     61700   297.98759      1319.3959     -3115.9084      28294.999      30.472159      1.112983     
     61800   291.28434      1333.4693     -4253.8429      28294.999      30.472159      1.112983     
     61900   299.60289      1274.3738     -2112.6044      28294.999      30.472159      1.112983     
     62000   304.37714      1235.156      -3149.2192      28294.999      30.472159      1.112983     
     62100   298.7797       1263.6589     -3114.232       28294.999      30.472159      1.112983     
     62200   293.59597      1279.5624     -2897.6094      28294.999      30.472159      1.112983     
     62300   296.24868      1281.2153     -676.30152      28294.999      30.472159      1.112983     
     62400   306.42787      1275.5649     -1540.1699      28294.999      30.472159      1.112983     
     62500   300.94272      1345.1593     -1969.7601      28294.999      30.472159      1.112983     
     62600   307.6706       1241.0727     -1405.3252      28294.999      30.472159      1.112983     
     62700   293.22504      1277.4592     -1196.0363      28294.999      30.472159      1.112983     
     62800   299.90348      1220.5305     -2202.9064      28294.999      30.472159      1.112983     
     62900   298.92919      1260.2348     -574.74789      28294.999      30.472159      1.112983     
     63000   295.58011      1331.7509     -1365.2838      28294.999      30.472159      1.112983     
     63100   305.32894      1274.1786     -2884.8877      28294.999      30.472159      1.112983     
     63200   298.4863       1266.914      -1063.0286      28294.999      30.472159      1.112983     
     63300   295.56874      1222.0849     -887.97763      28294.999      30.472159      1.112983     
     63400   300.97535      1200.8091     -664.53158      28294.999      30.472159      1.112983     
     63500   291.60078      1362.4702     -2283.6851      28294.999      30.472159      1.112983     
     63600   303.72571      1284.5855     -1805.0067      28294.999      30.472159      1.112983     
     63700   300.25243      1293.0891     -3011.6338      28294.999      30.472159      1.112983     
     63800   296.25413      1296.7728     -541.9742       28294.999      30.472159      1.112983     
     63900   298.65539      1242.8559     -1090.0575      28294.999      30.472159      1.112983     
     64000   298.10177      1212.6226     -3518.4518      28294.999      30.472159      1.112983     
     64100   291.96472      1252.4497     -1772.8774      28294.999      30.472159      1.112983     
     64200   296.53248      1280.469      -1472.6347      28294.999      30.472159      1.112983     
     64300   300.26364      1310.28       -358.24204      28294.999      30.472159      1.112983     
     64400   300.75388      1308.311       119.89546      28294.999      30.472159      1.112983     
     64500   301.60006      1267.5719     -775.56069      28294.999      30.472159      1.112983     
     64600   298.37242      1202.7111     -1894.2724      28294.999      30.472159      1.112983     
     64700   295.20246      1219.3506     -171.19764      28294.999      30.472159      1.112983     
     64800   298.95545      1275.0147     -572.14753      28294.999      30.472159      1.112983     
     64900   298.17051      1315.6027     -620.3018       28294.999      30.472159      1.112983     
     65000   298.13626      1302.7386     -433.14005      28294.999      30.472159      1.112983     
     65100   303.0508       1235.4588     -3005.768       28294.999      30.472159      1.112983     
     65200   297.63544      1265.3327     -125.07373      28294.999      30.472159      1.112983     
     65300   295.31122      1296.1982     -845.84031      28294.999      30.472159      1.112983     
     65400   303.41465      1293.3053     -1441.0864      28294.999      30.472159      1.112983     
     65500   300.49393      1356.5923     -1470.5874      28294.999      30.472159      1.112983     
     65600   302.42794      1302.1562     -3740.7         28294.999      30.472159      1.112983     
     65700   294.58569      1266.3961     -3824.8976      28294.999      30.472159      1.112983     
     65800   297.90014      1244.1172     -102.04479      28294.999      30.472159      1.112983     
     65900   296.89875      1307.4695     -2266.3451      28294.999      30.472159      1.112983     
     66000   301.09648      1315.895      -2062.2826      28294.999      30.472159      1.112983     
     66100   303.65         1298.2078     -2193.0946      28294.999      30.472159      1.112983     
     66200   296.76608      1349.4266     -1897.1563      28294.999      30.472159      1.112983     
     66300   304.58427      1274.2191     -1373.892       28294.999      30.472159      1.112983     
     66400   297.64925      1305.7183      13.532062      28294.999      30.472159      1.112983     
     66500   295.17026      1212.5092     -2688.2519      28294.999      30.472159      1.112983     
     66600   296.04969      1187.9039     -2756.6046      28294.999      30.472159      1.112983     
     66700   292.09232      1306.7872     -3437.3528      28294.999      30.472159      1.112983     
     66800   305.73139      1238.985      -1017.0914      28294.999      30.472159      1.112983     
     66900   298.99233      1329.1235     -1587.8079      28294.999      30.472159      1.112983     
     67000   307.44085      1262.5871     -2877.1662      28294.999      30.472159      1.112983     
     67100   296.3351       1298.1733     -2468.9259      28294.999      30.472159      1.112983     
     67200   288.21658      1301.7262     -2080.8131      28294.999      30.472159      1.112983     
     67300   295.51945      1268.1209     -2365.5174      28294.999      30.472159      1.112983     
     67400   300.577        1300.6817     -569.51645      28294.999      30.472159      1.112983     
     67500   301.23413      1308.3207     -1116.3729      28294.999      30.472159      1.112983     
     67600   300.12153      1301.4098     -1329.4393      28294.999      30.472159      1.112983     
     67700   295.72616      1281.0288     -1067.7209      28294.999      30.472159      1.112983     
     67800   301.07284      1204.9679     -2608.6373      28294.999      30.472159      1.112983     
     67900   297.80527      1226.2412     -1586.2069      28294.999      30.472159      1.112983     
     68000   302.95505      1243.7663     -1497.8297      28294.999      30.472159      1.112983     
     68100   305.69334      1278.2525     -375.06248      28294.999      30.472159      1.112983     
     68200   306.15669      1260.5112     -753.10615      28294.999      30.472159      1.112983     
     68300   295.44559      1280.4228     -603.56574      28294.999      30.472159      1.112983     
     68400   290.1617       1283.8328      533.76622      28294.999      30.472159      1.112983     
     68500   299.68786      1245.4091     -2493.3966      28294.999      30.472159      1.112983     
     68600   296.14906      1297.8134     -1516.2734      28294.999      30.472159      1.112983     
     68700   297.8969       1290.5679     -870.15891      28294.999      30.472159      1.112983     
     68800   299.8613       1290.5506     -225.185        28294.999      30.472159      1.112983     
     68900   302.83093      1275.5042     -1268.4199      28294.999      30.472159      1.112983     
     69000   302.52067      1289.3758     -1342.2761      28294.999      30.472159      1.112983     
     69100   302.49343      1276.4809      1304.9591      28294.999      30.472159      1.112983     
     69200   299.73286      1241.5833     -808.45105      28294.999      30.472159      1.112983     
     69300   301.53603      1185.7922      885.82468      28294.999      30.472159      1.112983     
     69400   300.33361      1204.8546      677.6375       28294.999      30.472159      1.112983     
     69500   302.36542      1286.8496     -1597.2696      28294.999      30.472159      1.112983     
     69600   306.93854      1279.4981     -389.00198      28294.999      30.472159      1.112983     
     69700   297.17887      1310.0445     -398.80941      28294.999      30.472159      1.112983     
     69800   296.6715       1256.86       -2198.1355      28294.999      30.472159      1.112983     
     69900   297.48104      1247.7515      82.958113      28294.999      30.472159      1.112983     
     70000   302.9978       1233.1636      466.33791      28294.999      30.472159      1.112983     
     70100   298.39325      1291.4587     -741.85824      28294.999      30.472159      1.112983     
     70200   306.02264      1249.8714      837.50682      28294.999      30.472159      1.112983     
     70300   302.59386      1359.7281      2139.3983      28294.999      30.472159      1.112983     
     70400   308.74674      1306.0575      763.65849      28294.999      30.472159      1.112983     
     70500   301.83079      1272.0317      909.16455      28294.999      30.472159      1.112983     
     70600   301.18497      1240.3294     -2250.7614      28294.999      30.472159      1.112983     
     70700   297.55153      1274.7797     -929.34777      28294.999      30.472159      1.112983     
     70800   300.88945      1273.1806     -3541.8328      28294.999      30.472159      1.112983     
     70900   306.05617      1313.7012     -1861.6719      28294.999      30.472159      1.112983     
     71000   308.15128      1320.68        346.27725      28294.999      30.472159      1.112983     
     71100   304.50707      1256.2136     -1575.2251      28294.999      30.472159      1.112983     
     71200   296.35726      1283.6123     -2017.7979      28294.999      30.472159      1.112983     
     71300   293.8374       1298.3128     -3014.4788      28294.999      30.472159      1.112983     
     71400   300.77421      1243.1032     -956.44523      28294.999      30.472159      1.112983     
     71500   300.50521      1291.1257     -2001.132       28294.999      30.472159      1.112983     
     71600   308.48397      1265.9577     -1637.062       28294.999      30.472159      1.112983     
     71700   301.00251      1275.3252     -1656.1209      28294.999      30.472159      1.112983     
     71800   299.13408      1211.4588     -4168.6567      28294.999      30.472159      1.112983     
     71900   301.1125       1207.3699     -3157.3884      28294.999      30.472159      1.112983     
     72000   298.09045      1290.2083      253.75714      28294.999      30.472159      1.112983     
     72100   303.7686       1289.4746     -317.77965      28294.999      30.472159      1.112983     
     72200   304.18724      1265.4271     -343.19763      28294.999      30.472159      1.112983     
     72300   300.70092      1265.6207      192.54594      28294.999      30.472159      1.112983     
     72400   301.58117      1251.718      -1640.5038      28294.999      30.472159      1.112983     
     72500   299.89983      1241.0712     -1407.9897      28294.999      30.472159      1.112983     
     72600   302.20469      1197.2301      2139.865       28294.999      30.472159      1.112983     
     72700   302.62324      1216.9495      298.4462       28294.999      30.472159      1.112983     
     72800   299.13078      1310.6536     -1174.0389      28294.999      30.472159      1.112983     
     72900   306.70648      1273.1804      775.08668      28294.999      30.472159      1.112983     
     73000   297.52723      1292.6694     -70.029558      28294.999      30.472159      1.112983     
     73100   295.00344      1238.583      -2065.9557      28294.999      30.472159      1.112983     
     73200   298.08025      1215.678      -2330.7925      28294.999      30.472159      1.112983     
     73300   300.30315      1253.7623     -260.81526      28294.999      30.472159      1.112983     
     73400   299.62117      1327.8582     -2757.856       28294.999      30.472159      1.112983     
     73500   299.17683      1333.4387     -109.78257      28294.999      30.472159      1.112983     
     73600   301.63533      1212.1781     -2355.6627      28294.999      30.472159      1.112983     
     73700   303.02511      1154.4118     -1858.2165      28294.999      30.472159      1.112983     
     73800   295.90447      1237.4454      58.244689      28294.999      30.472159      1.112983     
     73900   300.91301      1264.2103     -2904.3588      28294.999      30.472159      1.112983     
     74000   307.92333      1232.9696     -2053.8307      28294.999      30.472159      1.112983     
     74100   303.63611      1226.8553      419.58584      28294.999      30.472159      1.112983     
     74200   292.29863      1216.5221     -1077.8807      28294.999      30.472159      1.112983     
     74300   298.92551      1164.5601     -1330.6896      28294.999      30.472159      1.112983     
     74400   294.83723      1257.8277     -402.35842      28294.999      30.472159      1.112983     
[...]
    733900   310.97392      1045.485       971.92798      26497.49       29.812719      1.1884843    
    734000   298.24506      1082.9096      1048.377       26530.093      29.824941      1.1870238    
    734100   295.70148      1100.093       857.59671      26550.793      29.832696      1.1860984    
    734200   295.44863      1159.7816     -186.35536      26742.274      29.904241      1.1776056    
    734300   300.02897      1177.4454      751.42893      26495.176      29.81185       1.1885882    
    734400   297.09106      1190.281      -314.72779      26640.848      29.866387      1.182089     
    734500   302.4665       1120.1857     -3295.254       26650.546      29.87001       1.1816588    
    734600   302.4958       1085.3055     -323.19707      26676.373      29.879656      1.1805148    
    734700   303.53611      1037.3645      514.45361      26666.174      29.875848      1.1809663    
    734800   297.8979       1078.3013      1485.5545      26587.869      29.846575      1.1844444    
    734900   301.51248      1109.1953      2195.4926      26563.753      29.837549      1.1855197    
    735000   306.3157       1144.4879     -661.60456      26912.935      29.967719      1.1701382    
    735100   305.73686      1129.9433      1371.4712      26901.234      29.963375      1.1706471    
    735200   298.19462      1119.7281     -1216.0717      26675.398      29.879292      1.1805579    
    735300   295.58893      1114.6617     -830.32314      26578.332      29.843007      1.1848694    
    735400   297.02266      1112.5198     -111.69816      26605.484      29.853166      1.1836602    
    735500   301.92121      1085.6735     -762.99096      26728.584      29.899137      1.1782088    
    735600   304.61171      1105.4893      33.449731      26886.324      29.957838      1.1712963    
    735700   306.98672      1190.7142      1019.6702      26855.518      29.946393      1.1726399    
    735800   307.64027      1175.4737     -207.80282      26884.895      29.957308      1.1713586    
    735900   299.1737       1161.72        1107.4962      26766.22       29.913164      1.1765521    
    736000   304.6364       1082.7706      3032.3451      26669.433      29.877065      1.180822     
    736100   302.14272      1091.1335     -1225.1565      26665.674      29.875661      1.1809884    
    736200   294.91532      1144.5846     -1397.5277      26663.901      29.874999      1.181067     
    736300   293.86637      1113.341      -499.92891      26610.275      29.854957      1.1834471    
    736400   294.50599      1065.3676     -1018.7592      26526.245      29.823499      1.187196     
    736500   294.1064       1137.1667     -632.29177      26566.877      29.838719      1.1853803    
    736600   297.8204       1177.4654      1549.6462      26639.685      29.865952      1.1821406    
    736700   308.59031      1069.6053      80.018973      26702.94       29.889572      1.1793403    
    736800   302.83367      1087.2146      123.8064       26716.843      29.894758      1.1787266    
    736900   298.58865      1061.5958     -270.0075       26662.657      29.874534      1.1811221    
    737000   289.73781      1050.8158      1526.839       26540.033      29.828665      1.1865792    
    737100   289.01315      1084.2106      152.00395      26599.244      29.850831      1.1839379    
    737200   293.63225      1145.9043     -1883.259       26702.222      29.889304      1.179372     
    737300   299.69151      1126.8213      214.33063      26854.19       29.945899      1.1726979    
    737400   300.92939      1149.2071     -147.65389      26857.631      29.947178      1.1725477    
    737500   303.99923      1143.587      -1015.9312      26798.336      29.925123      1.1751421    
    737600   306.45472      1094.6937      1763.2273      26932.578      29.975008      1.1692847    
    737700   294.5681       1108.0208     -349.57492      26842.079      29.941396      1.173227     
    737800   290.22048      1130.9938     -2017.8718      26694.926      29.886581      1.1796943    
    737900   294.81208      1145.7686     -275.27884      26794.935      29.923857      1.1752912    
    738000   304.09009      1112.5816      1622.0006      26928.485      29.973489      1.1694625    
    738100   302.15985      1131.6955      406.38624      26827.81       29.93609       1.173851     
    738200   303.81149      1081.0808     -1068.7968      26818.726      29.932711      1.1742486    
    738300   296.42005      1098.7004     -692.13422      26766.351      29.913213      1.1765463    
    738400   288.46682      1121.4288     -1455.8311      26596.488      29.849801      1.1840605    
    738500   296.24769      1027.7401     -1018.7769      26680.065      29.881034      1.1803514    
    738600   298.87822      1068.87       -281.99048      26820.553      29.933391      1.1741686    
    738700   303.59251      1102.1979      1527.1794      26703.728      29.889866      1.1793055    
    738800   303.31661      1097.7322     -2134.6901      26812.93       29.930554      1.1745025    
    738900   296.05503      1111.3774     -676.74659      26817.383      29.932211      1.1743075    
    739000   290.01864      1095.4468      2397.2438      26622.143      29.859395      1.1829195    
    739100   297.42407      1073.0968      746.12636      26737.763      29.902559      1.1778043    
    739200   299.62246      1157.1845     -1357.0896      26882.277      29.956335      1.1714727    
    739300   301.25816      1126.1928      1450.1735      26548.037      29.831664      1.1862215    
    739400   298.50711      1093.8574      1869.3269      26684.168      29.882566      1.1801699    
    739500   295.73687      1073.2644     -1911.3392      26907.561      29.965724      1.1703719    
    739600   297.95604      1079.6757     -1396.2113      26948.944      29.981078      1.1685746    
    739700   303.05047      1153.8367      88.953036      26843.491      29.941921      1.1731653    
    739800   306.33272      1117.7824      1519.5867      26432.526      29.788335      1.1914053    
    739900   300.04389      1101.2057     -2351.7337      26803.604      29.927084      1.1749111    
    740000   296.99733      1088.8195     -1.6284496      26694.834      29.886547      1.1796984    
    740100   304.03976      1047.6774     -113.32623      26661.129      29.873963      1.1811898    
    740200   300.41233      1118.2901      985.02425      26758.29       29.910209      1.1769008    
    740300   310.16337      1122.4374     -311.77252      26772.906      29.915654      1.1762583    
    740400   307.46033      1207.0301      1053.1576      26868.537      29.951231      1.1720717    
    740500   301.32001      1170.6647      1547.1615      26621.113      29.85901       1.1829653    
    740600   300.65654      1122.9042     -520.05542      26604.428      29.85277       1.1837072    
    740700   302.07498      1074.3896      1360.4993      26695.475      29.886786      1.1796701    
    740800   293.37672      1118.3363      418.3205       26838.854      29.940197      1.173368     
    740900   297.70286      1079.2358      2019.0215      26502.009      29.814413      1.1882817    
    741000   302.33357      1134.922      -1588.4025      26566.885      29.838722      1.1853799    
    741100   308.15676      1109.0406      297.06019      26505.716      29.815803      1.1881155    
    741200   304.53436      1089.2781      642.97742      26411.368      29.780384      1.1923598    
    741300   303.23009      1049.9833      1555.2308      26778.95       29.917905      1.1759928    
    741400   296.30875      1112.1106      554.66669      26693.242      29.885953      1.1797687    
    741500   298.35563      1119.1037     -1552.6431      26482.978      29.807275      1.1891356    
    741600   300.59873      1109.0719     -245.51769      26650.666      29.870055      1.1816535    
    741700   302.50691      1114.15        504.19553      26557.926      29.835367      1.1857798    
    741800   307.27191      1124.2077     -588.47055      26499.832      29.813597      1.1883793    
    741900   301.39872      1169.9956      1410.6816      26507.622      29.816518      1.1880301    
    742000   300.93023      1077.0605      1714.1138      26620.088      29.858627      1.1830108    
    742100   299.44123      1068.724       2858.15        26550.042      29.832414      1.1861319    
    742200   299.37571      1097.4861     -68.794413      26713.99       29.893694      1.1788524    
    742300   302.50778      1122.1646      746.38529      26597.33       29.850115      1.1840231    
    742400   310.52473      1159.4562     -286.8546       26609.364      29.854616      1.1834876    
    742500   301.53523      1227.7733     -586.94814      26631.871      29.863032      1.1824874    
    742600   296.71091      1205.245      -1363.6352      26682.248      29.881849      1.1802549    
    742700   304.4239       1086.3459      1407.3077      26656.251      29.872141      1.1814059    
    742800   299.97946      1078.067       678.193        26672.911      29.878363      1.180668     
    742900   294.23017      1106.9426      693.65826      26693.416      29.886018      1.179761     
    743000   306.52134      1083.2658      111.92042      26846.058      29.942876      1.1730531    
    743100   308.17008      1132.6724      1671.7366      26695.164      29.88667       1.1796838    
    743200   306.52529      1108.2403      960.681        26835.451      29.938932      1.1735168    
    743300   300.72962      1092.7258      1231.259       26768.537      29.914027      1.1764503    
    743400   294.24729      1127.8088     -1406.335       26768.755      29.914108      1.1764407    
    743500   292.33208      1155.73       -1748.6182      26887.422      29.958247      1.1712485    
    743600   301.32583      1128.9329      93.467754      26663.603      29.874888      1.1810802    
    743700   300.91382      1249.5477     -2283.8702      27162.682      30.060132      1.1593793    
    743800   307.27885      1165.0233      13.866281      26595.864      29.849567      1.1840883    
    743900   298.66021      1172.3382     -77.514468      26515.44       29.819449      1.1876798    
    744000   296.09444      1142.6898     -390.70296      26777.913      29.917519      1.1760383    
    744100   294.48133      1148.1194     -2438.9338      26753.042      29.908254      1.1771316    
    744200   302.91037      1093.9321     -966.10477      26724.115      29.89747       1.1784058    
    744300   308.56778      1122.6918      830.43853      26642.891      29.86715       1.1819983    
    744400   307.05852      1165.8109      1483.8337      26688.241      29.884087      1.1799898    
    744500   302.64589      1113.9364     -1256.7104      26729.169      29.899355      1.178183     
    744600   290.58487      1170.7571     -323.26356      26898.253      29.962268      1.1707769    
    744700   302.33556      1094.7435     -1092.9164      26681.686      29.88164       1.1802797    
    744800   299.56867      1140.7802     -1067.5897      26596.532      29.849817      1.1840586    
    744900   302.57725      1092.307       1673.1645      26347.973      29.756538      1.1952287    
    745000   296.2637       1058.3318     -464.03092      26630.349      29.862463      1.182555     
    745100   296.53911      1044.7333      1179.439       26609.448      29.854648      1.1834839    
    745200   298.51816      1107.6928     -697.73297      26586.82       29.846183      1.1844911    
    745300   303.59315      1111.1695      1718.7651      26611.152      29.855285      1.1834081    
    745400   308.55621      1055.275       730.5832       26682.896      29.882091      1.1802262    
    745500   298.04308      1102.4925      1403.0091      26336.811      29.752335      1.1957352    
    745600   297.33722      1051.6712     -1287.1376      26410.075      29.779898      1.1924182    
    745700   293.39015      1022.8517     -2340.043       26694.888      29.886567      1.179696     
    745800   289.04296      1062.284       770.55232      26673.709      29.878661      1.1806327    
    745900   298.81791      1093.9537      48.738049      26593.444      29.848662      1.1841961    
    746000   301.62324      1124.4263     -997.49779      26608.981      29.854473      1.1835047    
    746100   301.59257      1145.5427      402.33703      26645.963      29.868298      1.1818621    
    746200   302.21706      1111.9027     -590.28994      26891.799      29.959872      1.1710579    
    746300   297.9245       1068.7666      543.60692      26637.936      29.865298      1.1822182    
    746400   293.68627      1087.2864      889.84617      26373.2        29.766032      1.1940854    
    746500   302.71272      1090.0809      929.32716      26540.769      29.828941      1.1865463    
    746600   304.68366      1105.6226      72.807951      26471.444      29.802947      1.1896537    
    746700   303.02479      1090.4784      899.10752      26329.992      29.749767      1.1960449    
    746800   299.29363      1073.9006     -846.04565      26505.844      29.815851      1.1881098    
    746900   298.37462      1046.7103     -286.68012      26579.655      29.843502      1.1848104    
    747000   297.74864      1122.8276     -67.969883      26693.311      29.885979      1.1797657    
    747100   304.84989      1143.7158      977.21028      26556.48       29.834826      1.1858444    
    747200   299.40375      1170.6879     -749.61868      26885.067      29.957372      1.1713511    
    747300   299.91023      1104.6348      1151.736       26631.947      29.86306       1.182484     
    747400   295.87777      1097.8945      842.41884      26514.438      29.819073      1.1877247    
    747500   302.23279      1054.009      -1881.1051      26455.216      29.796855      1.1903835    
    747600   307.33653      1118.1334      2212.7804      26353.753      29.758714      1.1949665    
    747700   303.98527      1144.9364      631.28226      26561.942      29.836871      1.1856005    
    747800   295.86659      1149.8774      477.14122      26700.547      29.888679      1.179446     
    747900   298.81141      1079.6625      366.59264      26492.834      29.810972      1.1886933    
    748000   298.43391      1087.7527      145.5482       26519.99       29.821154      1.187476     
    748100   300.98673      1084.4561     -1791.8106      26641.071      29.86647       1.1820791    
    748200   304.48238      1063.3252      901.11683      26357.23       29.760023      1.1948089    
    748300   296.4564       1136.6342      1620.0989      26469.268      29.80213       1.1897516    
    748400   295.80806      1141.9361     -3630.8443      26669.595      29.877125      1.1808148    
    748500   304.82754      1060.8325      742.45319      26531.234      29.825368      1.1869728    
    748600   301.74964      1098.4332      1720.6717      26250.926      29.719959      1.1996473    
    748700   300.4754       1106.3061      840.44848      26364.686      29.762828      1.194471     
    748800   302.20599      1063.2862     -830.446        26638.211      29.865401      1.182206     
    748900   293.64813      1092.5456     -563.66636      26491.568      29.810497      1.18875      
    749000   294.45333      1078.122       1183.5215      26275.78       29.729336      1.1985126    
    749100   301.59955      1113.9111     -1908.1618      26702.179      29.889288      1.1793739    
    749200   305.9368       1113.5433     -1137.9971      26506.597      29.816133      1.1880761    
    749300   303.75818      1087.8234     -1683.9394      26542.079      29.829432      1.1864878    
    749400   295.34561      1104.5861      1646.1306      26418.194      29.78295       1.1920517    
    749500   301.3848       1054.6249     -1498.9721      26335.828      29.751965      1.1957798    
    749600   305.21473      1029.7327     -2373.2878      26326.144      29.748318      1.1962197    
    749700   297.60757      1096.7541      1108.9919      26290.119      29.734743      1.1978589    
    749800   298.21445      1090.9313     -263.48219      26467.983      29.801648      1.1898093    
    749900   294.84208      1135.9209     -360.42214      26649.52       29.869627      1.1817043    
    750000   295.9334       1145.2368     -1804.5422      26680.902      29.881347      1.1803144    
    750100   306.7624       1142.0793      1406.2687      26636.514      29.864767      1.1822813    
    750200   306.21986      1177.3736      1229.8524      26583.194      29.844826      1.1846527    
    750300   308.42535      1059.6867      232.23905      26545.001      29.830526      1.1863572    
    750400   297.71962      1107.2211     -1044.3278      26606.372      29.853497      1.1836207    
    750500   296.85473      1115.5         647.79505      26495.922      29.81213       1.1885547    
    750600   299.78392      1105.4396      383.1751       26406.703      29.778631      1.1925704    
    750700   297.23715      1170.6327     -1877.0134      26625.623      29.860696      1.1827649    
    750800   301.66124      1179.6702      496.08263      26639.667      29.865945      1.1821414    
    750900   305.53232      1115.0646     -648.96762      26634.954      29.864184      1.1823506    
    751000   296.83953      1113.5149      1241.2825      26436.601      29.789865      1.1912217    
    751100   295.6873       1091.2602     -767.88141      26626.178      29.860903      1.1827403    
    751200   296.89256      1116.9834      677.94987      26410.82       29.780178      1.1923845    
    751300   306.24158      1155.584      -2077.9859      26539.883      29.828609      1.186586     
    751400   301.70184      1190.1949     -413.84211      26905.318      29.964892      1.1704694    
    751500   302.25041      1115.5689      1074.553       26629.44       29.862123      1.1825954    
    751600   302.05965      1074.5752      1417.6331      26470.67       29.802657      1.1896885    
    751700   299.55933      1077.2698     -849.63329      26716.886      29.894774      1.1787247    
    751800   294.84264      1139.494      -1010.1653      26608.144      29.85416       1.1835419    
    751900   306.10937      1159.8598      1495.6402      26664.526      29.875232      1.1810393    
    751996   304.22568      1194.3153     -534.38142      26797.528      29.924822      1.1751775    
Loop time of 2649.32 on 1 procs for 250000 steps with 2997 atoms

Performance: 8.153 ns/day, 2.944 hours/ns, 94.364 timesteps/s
97.0% CPU use with 1 MPI tasks x no OpenMP threads

MPI task timing breakdown:
Section |  min time  |  avg time  |  max time  |%varavg| %total
---------------------------------------------------------------
Pair    | 2150.5     | 2150.5     | 2150.5     |   0.0 | 81.17
Bond    | 63.21      | 63.21      | 63.21      |   0.0 |  2.39
Neigh   | 401.66     | 401.66     | 401.66     |   0.0 | 15.16
Comm    | 12.448     | 12.448     | 12.448     |   0.0 |  0.47
Output  | 4.3573     | 4.3573     | 4.3573     |   0.0 |  0.16
Modify  | 15.617     | 15.617     | 15.617     |   0.0 |  0.59
Other   |            | 1.479      |            |       |  0.06

Nlocal:           2997 ave        2997 max        2997 min
Histogram: 1 0 0 0 0 0 0 0 0 0
Nghost:          14576 ave       14576 max       14576 min
Histogram: 1 0 0 0 0 0 0 0 0 0
Neighs:    1.19976e+06 ave 1.19976e+06 max 1.19976e+06 min
Histogram: 1 0 0 0 0 0 0 0 0 0

Total # of neighbors = 1199756
Ave neighs/atom = 400.31899
Ave special neighs/atom = 12.110777
Neighbor list builds = 12138
Dangerous builds = 0
unfix			1
#final
write_data		after_cross_linking_latest_1.data
System init for write_data ...
Generated 153 of 153 mixed pair_coeff terms from geometric mixing rule

#parameter
neighbor		2.0 bin
Total wall time: 1:56:02
