LAMMPS (23 Jun 2022 - Update 1)
OMP_NUM_THREADS environment is not set. Defaulting to 1 thread. (src/comm.cpp:98)
  using 1 OpenMP thread(s) per MPI task
Loaded 1 plugins from C:\Users\HP\AppData\Local\LAMMPS 64-bit 23Jun2022\plugins
# Initialization
units			real
dimension		3
processors		* * *
boundary		p p p
atom_style		full
pair_style		lj/cut 10.0
bond_style		harmonic
angle_style 	harmonic
read_data		pre_minimize.data
Reading data file ...
  orthogonal box = (-4.9465 -7.861 -4.977498) to (95.0535 92.139 95.022502)
  1 by 1 by 1 MPI processor grid
  reading atoms ...
  3108 atoms
  scanning bonds ...
  3 = max bonds/atom
  scanning angles ...
  6 = max angles/atom
  reading bonds ...
  3084 bonds
  reading angles ...
  5680 angles
Finding 1-2 1-3 1-4 neighbors ...
  special bond factors lj:    0        0        0       
  special bond factors coul:  0        0        0       
     4 = max # of 1-2 neighbors
     7 = max # of 1-3 neighbors
    14 = max # of 1-4 neighbors
    18 = max # of special neighbors
  special bonds CPU = 0.007 seconds
  read_data CPU = 0.074 seconds

#output

thermo			100
thermo_style	custom step temp pe press vol lx density
dump			1 all custom 100 before_cross_linking.lammpstrj id type x y z

#intial minimization
minimize		1.0e-5 1.0e-5 10000 10000
WARNING: Using 'neigh_modify every 1 delay 0 check yes' setting during minimization (src/min.cpp:187)
Generated 78 of 78 mixed pair_coeff terms from geometric mixing rule
Neighbor list info ...
  update every 1 steps, delay 0 steps, check yes
  max neighbors/atom: 2000, page size: 100000
  master list distance cutoff = 12
  ghost atom cutoff = 12
  binsize = 6, bins = 17 17 17
  1 neighbor lists, perpetual/occasional/extra = 1 0 0
  (1) pair lj/cut, perpetual
      attributes: half, newton on
      pair build: half/bin/newton
      stencil: half/bin/3d
      bin: standard
Per MPI rank memory allocation (min/avg/max) = 12.06 | 12.06 | 12.06 Mbytes
   Step          Temp          PotEng         Press          Volume           Lx          Density    
         0   0              2264.9041     -478.08839      1000000        100            0.03259871   
       100   0             -165.69299     -19.301206      1000000        100            0.03259871   
       200   0             -234.195       -14.466784      1000000        100            0.03259871   
       300   0             -276.82416     -4.5654976      1000000        100            0.03259871   
       400   0             -309.89227     -4.0435832      1000000        100            0.03259871   
       500   0             -339.17554     -2.7992988      1000000        100            0.03259871   
       600   0             -359.84008     -2.9561595      1000000        100            0.03259871   
       700   0             -379.88064     -6.1577899      1000000        100            0.03259871   
       800   0             -395.20904     -3.9237908      1000000        100            0.03259871   
       900   0             -403.50811     -3.556375       1000000        100            0.03259871   
      1000   0             -411.38179     -2.5522419      1000000        100            0.03259871   
      1100   0             -417.22671     -3.2565159      1000000        100            0.03259871   
      1200   0             -422.2074      -3.8102065      1000000        100            0.03259871   
      1300   0             -429.21858     -3.6362405      1000000        100            0.03259871   
      1400   0             -437.81335     -2.43673        1000000        100            0.03259871   
      1500   0             -449.80984     -2.5457779      1000000        100            0.03259871   
      1600   0             -463.0722      -5.147208       1000000        100            0.03259871   
      1700   0             -478.03046     -2.7336644      1000000        100            0.03259871   
      1800   0             -488.65337     -3.571214       1000000        100            0.03259871   
      1900   0             -498.72934     -3.7147748      1000000        100            0.03259871   
      2000   0             -506.34053     -3.4058365      1000000        100            0.03259871   
      2100   0             -512.7443      -8.1884436      1000000        100            0.03259871   
      2200   0             -519.12643     -6.2275009      1000000        100            0.03259871   
      2300   0             -524.55428     -4.4511316      1000000        100            0.03259871   
      2400   0             -529.10766     -4.1725692      1000000        100            0.03259871   
      2500   0             -532.90444     -3.6233987      1000000        100            0.03259871   
      2600   0             -536.84347     -3.5890001      1000000        100            0.03259871   
      2700   0             -540.06567     -3.8818131      1000000        100            0.03259871   
      2800   0             -543.05029     -4.0864047      1000000        100            0.03259871   
      2900   0             -545.50483     -3.6265096      1000000        100            0.03259871   
      3000   0             -548.31042     -4.2676704      1000000        100            0.03259871   
      3100   0             -552.51703     -3.1478685      1000000        100            0.03259871   
      3200   0             -556.82799     -3.1614838      1000000        100            0.03259871   
      3300   0             -559.33069     -3.0371682      1000000        100            0.03259871   
      3400   0             -561.49479     -3.3184407      1000000        100            0.03259871   
      3500   0             -564.74815     -4.6865047      1000000        100            0.03259871   
      3600   0             -569.55587     -4.3231195      1000000        100            0.03259871   
      3700   0             -575.95346     -6.2930597      1000000        100            0.03259871   
      3800   0             -582.94433     -4.783837       1000000        100            0.03259871   
      3900   0             -587.84211     -4.5391114      1000000        100            0.03259871   
      4000   0             -592.29629     -4.528289       1000000        100            0.03259871   
      4100   0             -597.34915     -3.0399372      1000000        100            0.03259871   
      4200   0             -600.62604     -3.3964098      1000000        100            0.03259871   
      4300   0             -604.35822     -4.1528987      1000000        100            0.03259871   
      4400   0             -608.88824     -3.9209868      1000000        100            0.03259871   
      4500   0             -614.04546     -4.3496215      1000000        100            0.03259871   
      4600   0             -621.215       -4.3214203      1000000        100            0.03259871   
      4700   0             -628.28055     -5.6587035      1000000        100            0.03259871   
      4800   0             -635.08351     -2.8520924      1000000        100            0.03259871   
      4900   0             -641.82555     -4.0219821      1000000        100            0.03259871   
      4999   0             -647.66881     -3.5948462      1000000        100            0.03259871   
Loop time of 56.0121 on 1 procs for 4999 steps with 3108 atoms

99.4% CPU use with 1 MPI tasks x 1 OpenMP threads

Minimization stats:
  Stopping criterion = max force evaluations
  Energy initial, next-to-last, final = 
      2264.90408280047  -647.623990081489  -647.668805409531
  Force two-norm initial, final = 1843.4335 8.5788446
  Force max component initial, final = 121.15907 1.359639
  Final line search alpha, max atom move = 0.010770378 0.014643826
  Iterations, force evaluations = 4999 10000

MPI task timing breakdown:
Section |  min time  |  avg time  |  max time  |%varavg| %total
---------------------------------------------------------------
Pair    | 48.535     | 48.535     | 48.535     |   0.0 | 86.65
Bond    | 5.5816     | 5.5816     | 5.5816     |   0.0 |  9.96
Neigh   | 0.55151    | 0.55151    | 0.55151    |   0.0 |  0.98
Comm    | 0.12201    | 0.12201    | 0.12201    |   0.0 |  0.22
Output  | 0.45       | 0.45       | 0.45       |   0.0 |  0.80
Modify  | 0          | 0          | 0          |   0.0 |  0.00
Other   |            | 0.7719     |            |       |  1.38

Nlocal:           3108 ave        3108 max        3108 min
Histogram: 1 0 0 0 0 0 0 0 0 0
Nghost:            482 ave         482 max         482 min
Histogram: 1 0 0 0 0 0 0 0 0 0
Neighs:         211275 ave      211275 max      211275 min
Histogram: 1 0 0 0 0 0 0 0 0 0

Total # of neighbors = 211275
Ave neighs/atom = 67.977799
Ave special neighs/atom = 11.407979
Neighbor list builds = 80
Dangerous builds = 0

timestep 1
# nvt for 200 ps
fix			1 all nvt temp 300 300 100
run			200000
Generated 78 of 78 mixed pair_coeff terms from geometric mixing rule
Per MPI rank memory allocation (min/avg/max) = 11.32 | 11.32 | 11.32 Mbytes
   Step          Temp          PotEng         Press          Volume           Lx          Density    
      4999   0             -647.66881     -3.5948462      1000000        100            0.03259871   
      5000   0.00054990485 -647.67425     -3.6144128      1000000        100            0.03259871   
      5100   0.21655094    -649.41205     -3.6183956      1000000        100            0.03259871   
      5200   0.40338303    -650.07232     -3.4095327      1000000        100            0.03259871   
      5300   0.6470237     -650.38631     -3.6449         1000000        100            0.03259871   
      5400   1.0269805     -650.48128     -4.0221729      1000000        100            0.03259871   
      5500   1.5412887     -649.75935     -3.2596889      1000000        100            0.03259871   
      5600   2.2352727     -647.74568     -4.4189999      1000000        100            0.03259871   
      5700   3.2571861     -644.62689      1.4802685      1000000        100            0.03259871   
      5800   4.9166648     -640.46964     -1.7665135      1000000        100            0.03259871   
      5900   7.4165029     -634.27325     -3.4167171      1000000        100            0.03259871   
      6000   11.374266     -624.41837     -1.8087462      1000000        100            0.03259871   
      6100   17.662259     -609.90564     -5.452831       1000000        100            0.03259871   
      6200   28.594169     -594.67244      3.1982352      1000000        100            0.03259871   
      6300   45.107401     -561.92682     -2.9076643      1000000        100            0.03259871   
      6400   72.295346     -520.53299      7.6417908      1000000        100            0.03259871   
      6500   113.34483     -456.04129      17.26045       1000000        100            0.03259871   
      6600   168.94516     -336.20923      25.55197       1000000        100            0.03259871   
      6700   249.19369     -270.12214      29.038683      1000000        100            0.03259871   
      6800   314.859       -99.698725      25.859371      1000000        100            0.03259871   
      6900   331.53233      95.420476      29.121078      1000000        100            0.03259871   
      7000   307.85738      92.702408      38.437807      1000000        100            0.03259871   
      7100   275.24747      113.08295      30.128515      1000000        100            0.03259871   
      7200   278.83788      213.79466     -16.056472      1000000        100            0.03259871   
      7300   317.14633      273.70836      8.3930488      1000000        100            0.03259871   
      7400   323.27614      376.2269       12.079286      1000000        100            0.03259871   
      7500   295.1197       432.27416      30.713181      1000000        100            0.03259871   
      7600   278.85593      425.62612     -45.331803      1000000        100            0.03259871   
      7700   295.72187      388.12175      66.257089      1000000        100            0.03259871   
      7800   314.98964      428.33633     -1.5687041      1000000        100            0.03259871   
      7900   309.39946      515.78742      69.853306      1000000        100            0.03259871   
      8000   295.96714      527.17465      23.103216      1000000        100            0.03259871   
      8100   292.48246      535.42688      40.327646      1000000        100            0.03259871   
      8200   298.66227      564.0958       12.526919      1000000        100            0.03259871   
      8300   304.11238      615.99897      28.333913      1000000        100            0.03259871   
      8400   312.51531      538.17979      47.685747      1000000        100            0.03259871   
      8500   288.24106      648.6918      -22.575737      1000000        100            0.03259871   
      8600   289.21543      629.75472      74.534057      1000000        100            0.03259871   
      8700   304.63776      587.20504      29.505287      1000000        100            0.03259871   
      8800   302.07486      681.12219      32.009835      1000000        100            0.03259871   
      8900   299.66898      695.49695      50.325402      1000000        100            0.03259871   
      9000   297.69255      693.61384      20.556496      1000000        100            0.03259871   
      9100   301.81387      694.00942      26.761016      1000000        100            0.03259871   
      9200   300.36113      780.94073      58.136711      1000000        100            0.03259871   
      9300   301.62991      807.21374      41.065353      1000000        100            0.03259871   
      9400   301.14167      777.27206      1.9352677      1000000        100            0.03259871   
      9500   292.90744      819.65326      29.072771      1000000        100            0.03259871   
      9600   294.85665      832.36252      29.93699       1000000        100            0.03259871   
      9700   307.86081      775.05355      21.022327      1000000        100            0.03259871   
      9800   305.40448      794.38896     -12.154609      1000000        100            0.03259871   
      9900   297.03588      819.41485     -10.578234      1000000        100            0.03259871   
     10000   286.11484      905.54058      6.2629378      1000000        100            0.03259871   
     10100   302.00443      879.76162      38.074005      1000000        100            0.03259871   
     10200   310.09422      913.21676     -6.720048       1000000        100            0.03259871   
     10300   303.69882      934.49689      28.970912      1000000        100            0.03259871   
     10400   299.81999      888.71008     -22.224275      1000000        100            0.03259871   
     10500   299.93022      894.01282      16.35131       1000000        100            0.03259871   
     10600   304.52099      909.07127     -32.466449      1000000        100            0.03259871   
     10700   294.92443      962.74492     -8.6045756      1000000        100            0.03259871   
     10800   292.30855      944.84985     -26.091218      1000000        100            0.03259871   
     10900   302.72283      899.19092      20.853981      1000000        100            0.03259871   
     11000   304.45867      946.9546       49.40897       1000000        100            0.03259871   
     11100   306.2628       958.7554       2.3007787      1000000        100            0.03259871   
     11200   300.87892      966.14474      45.76983       1000000        100            0.03259871   
     11300   293.87716      970.1911       43.137905      1000000        100            0.03259871   
     11400   294.09725      980.33902     -60.504517      1000000        100            0.03259871   
     11500   301.27295      975.54334      35.866698      1000000        100            0.03259871   
     11600   302.51956      997.40197      56.512748      1000000        100            0.03259871   
     11700   302.97243      981.16214      65.584031      1000000        100            0.03259871   
     11800   296.30841      1000.6587      52.55599       1000000        100            0.03259871   
     11900   293.65947      1004.8367      55.265744      1000000        100            0.03259871   
     12000   295.73296      1030.1668      38.594493      1000000        100            0.03259871   
     12100   310.86146      942.53324      23.335457      1000000        100            0.03259871   
     12200   302.3811       1012.0869      37.58817       1000000        100            0.03259871   
     12300   302.67223      1000.2439      35.032523      1000000        100            0.03259871   
     12400   300.38277      1005.5373     -0.10275448     1000000        100            0.03259871   
     12500   293.14374      1057.3697      31.460335      1000000        100            0.03259871   
     12600   305.38914      988.53475      47.212098      1000000        100            0.03259871   
     12700   301.07485      1037.3611     -0.88193334     1000000        100            0.03259871   
     12800   298.46392      1056.654       6.2470083      1000000        100            0.03259871   
     12900   301.80588      1020.8503      25.485593      1000000        100            0.03259871   
     13000   296.27729      1058.5292      8.6515735      1000000        100            0.03259871   
     13100   298.61268      1047.8028      14.247367      1000000        100            0.03259871   
     13200   304.37246      1032.4539      45.440239      1000000        100            0.03259871   
     13300   299.79823      1078.1881      14.423613      1000000        100            0.03259871   
     13400   301.54366      1031.6091      28.447353      1000000        100            0.03259871   
     13500   293.38822      1100.3202     -19.502974      1000000        100            0.03259871   
     13600   304.27676      1037.2508      31.6658        1000000        100            0.03259871   
     13700   300.17386      1072.5774      6.510903       1000000        100            0.03259871   
     13800   302.34442      1022.4817      10.567592      1000000        100            0.03259871   
     13900   296.6204       1070.0204      3.5898087      1000000        100            0.03259871   
     14000   296.17453      1129.6224     -5.4541335      1000000        100            0.03259871   
     14100   301.10281      1184.3226     -28.822666      1000000        100            0.03259871   
     14200   312.38422      1162.0033      39.611883      1000000        100            0.03259871   
     14300   307.27094      1138.3284     -59.534624      1000000        100            0.03259871   
     14400   299.30052      1072.2533     -33.954334      1000000        100            0.03259871   
     14500   291.791        1099.5765      56.764219      1000000        100            0.03259871   
     14600   295.53565      1168.1349     -34.751096      1000000        100            0.03259871   
     14700   300.91888      1250.4273      0.70587252     1000000        100            0.03259871   
     14800   300.77443      1259.5437     -25.156653      1000000        100            0.03259871   
     14900   290.44883      1226.9432     -15.369848      1000000        100            0.03259871   
     15000   291.03864      1132.4509      51.982624      1000000        100            0.03259871   
     15100   296.7488       1145.8085      21.280963      1000000        100            0.03259871   
     15200   299.81817      1245.9041     -13.163598      1000000        100            0.03259871   
     15300   306.897        1247.819      -16.827263      1000000        100            0.03259871   
     15400   302.00992      1193.2649     -29.405694      1000000        100            0.03259871   
     15500   294.59534      1125.49       -20.41615       1000000        100            0.03259871   
     15600   299.1258       1063.5876      15.575395      1000000        100            0.03259871   
     15700   299.88817      1134.8933      17.948789      1000000        100            0.03259871   
     15800   308.48099      1134.9517      40.978199      1000000        100            0.03259871   
     15900   305.5333       1147.6329      51.927309      1000000        100            0.03259871   
     16000   301.84816      1093.986       24.571534      1000000        100            0.03259871   
     16100   293.82911      1116.4313     -14.272581      1000000        100            0.03259871   
     16200   299.81775      1111.2708     -12.389903      1000000        100            0.03259871   
     16300   303.41884      1179.846       19.424524      1000000        100            0.03259871   
     16400   303.3332       1218.2544      57.40141       1000000        100            0.03259871   
     16500   302.83356      1183.8244      8.0968601      1000000        100            0.03259871   
     16600   299.04569      1158.0258      20.134773      1000000        100            0.03259871   
     16700   291.66225      1194.2611      14.39964       1000000        100            0.03259871   
     16800   303.34583      1131.0476      2.5575573      1000000        100            0.03259871   
     16900   305.57036      1168.904       42.86361       1000000        100            0.03259871   
     17000   303.0785       1204.8829      34.28615       1000000        100            0.03259871   
     17100   300.99846      1198.2468      18.452042      1000000        100            0.03259871   
     17200   299.80991      1153.8282      0.059348006    1000000        100            0.03259871   
     17300   293.67684      1169.3623      71.097974      1000000        100            0.03259871   
     17400   297.1504       1159.9315     -0.69861444     1000000        100            0.03259871   
     17500   302.35348      1210.3296      1.2317263      1000000        100            0.03259871   
     17600   304.28049      1280.7149      29.013905      1000000        100            0.03259871   
     17700   301.02235      1271.6542      0.65005726     1000000        100            0.03259871   
     17800   298.62712      1178.22       -6.9003413      1000000        100            0.03259871   
     17900   287.19919      1262.4432     -15.588994      1000000        100            0.03259871   
     18000   305.33318      1183.7476      19.481764      1000000        100            0.03259871   
     18100   306.76293      1250.3607     -15.395796      1000000        100            0.03259871   
     18200   302.30657      1264.6135     -43.310887      1000000        100            0.03259871   
     18300   297.95199      1249.8631     -8.320005       1000000        100            0.03259871   
     18400   293.64823      1267.7497     -7.633653       1000000        100            0.03259871   
     18500   297.84484      1252.1524     -33.014337      1000000        100            0.03259871   
     18600   301.68135      1269.7581      5.2843487      1000000        100            0.03259871   
     18700   304.52572      1232.9164     -7.4549065      1000000        100            0.03259871   
     18800   300.59725      1219.3176     -45.927095      1000000        100            0.03259871   
     18900   296.09171      1247.356       19.009731      1000000        100            0.03259871   
     19000   301.55222      1197.6411      20.570282      1000000        100            0.03259871   
     19100   303.69782      1210.3956      46.620946      1000000        100            0.03259871   
     19200   306.12074      1216.6342      41.681447      1000000        100            0.03259871   
     19300   304.34426      1200.1157      47.810511      1000000        100            0.03259871   
     19400   296.70561      1234.7235     -31.948497      1000000        100            0.03259871   
     19500   296.13143      1249.5546      7.7596946      1000000        100            0.03259871   
     19600   303.17314      1196.0186      36.92479       1000000        100            0.03259871   
     19700   300.21096      1224.7188      13.076581      1000000        100            0.03259871   
     19800   306.03658      1188.113       46.191074      1000000        100            0.03259871   
     19900   304.2309       1202.3584      50.115346      1000000        100            0.03259871   
     20000   300.00798      1210.472       1.6350477      1000000        100            0.03259871   
     20100   296.92942      1216.8732      22.652002      1000000        100            0.03259871   
     20200   296.17285      1235.124       7.4892817      1000000        100            0.03259871   
     20300   302.50943      1199.0931     -37.743082      1000000        100            0.03259871   
     20400   303.80144      1178.5015     -17.838125      1000000        100            0.03259871   
     20500   298.26675      1218.332      -37.884911      1000000        100            0.03259871   
     20600   297.95305      1232.4491      38.077822      1000000        100            0.03259871   
     20700   303.21346      1236.5618      29.282971      1000000        100            0.03259871   
     20800   299.7258       1302.7681     -5.3231844      1000000        100            0.03259871   
     20900   300.44662      1274.2902      56.799207      1000000        100            0.03259871   
     21000   298.59067      1250.0743      10.017597      1000000        100            0.03259871   
     21100   301.1691       1202.0352      33.414553      1000000        100            0.03259871   
     21200   297.07665      1229.4332      27.144308      1000000        100            0.03259871   
     21300   294.86583      1268.7902     -3.3805021      1000000        100            0.03259871   
     21400   296.02245      1279.2262     -11.27825       1000000        100            0.03259871   
     21500   300.21493      1251.949       28.461537      1000000        100            0.03259871   
     21600   301.52035      1230.7807      45.001397      1000000        100            0.03259871   
     21700   298.56342      1238.5835     -47.678005      1000000        100            0.03259871   
     21800   297.92964      1260.7319     -26.86315       1000000        100            0.03259871   
     21900   302.30933      1276.6779     -38.343224      1000000        100            0.03259871   
     22000   303.72647      1285.8232     -6.2265594      1000000        100            0.03259871   
     22100   298.71536      1262.4739     -21.662719      1000000        100            0.03259871   
     22200   290.45396      1263.916      -35.381727      1000000        100            0.03259871   
     22300   295.60155      1210.228       34.270822      1000000        100            0.03259871   
     22400   298.95241      1224.9817      32.693758      1000000        100            0.03259871   
     22500   305.75358      1221.4873     -40.358554      1000000        100            0.03259871   
     22600   308.71629      1210.9539      16.872282      1000000        100            0.03259871   
     22700   297.4979       1245.1089      13.791943      1000000        100            0.03259871   
     22800   294.24493      1220.8731      5.8839729      1000000        100            0.03259871   
     22900   299.83846      1205.05        25.450414      1000000        100            0.03259871   
     23000   306.68225      1189.0153      46.39054       1000000        100            0.03259871   
     23100   295.5485       1289.343      -13.016745      1000000        100            0.03259871   
     23200   290.0921       1313.0121      18.284924      1000000        100            0.03259871   
     23300   299.70751      1219.1821     -3.8088391      1000000        100            0.03259871   
     23400   301.31943      1214.0113      30.477474      1000000        100            0.03259871   
     23500   303.89105      1219.6114      11.375652      1000000        100            0.03259871   
     23600   301.2991       1270.6297     -23.064144      1000000        100            0.03259871   
     23700   306.51055      1212.9901      55.378484      1000000        100            0.03259871   
     23800   297.85544      1250.4222      12.136333      1000000        100            0.03259871   
     23900   298.15681      1229.2741      42.757106      1000000        100            0.03259871   
     24000   303.20795      1224.7492      54.704704      1000000        100            0.03259871   
     24100   305.38804      1246.0449      22.256149      1000000        100            0.03259871   
     24200   303.14177      1253.0498     -32.939039      1000000        100            0.03259871   
     24300   297.05818      1260.2986      2.1534947      1000000        100            0.03259871   
     24400   289.53209      1270.0031      4.582684       1000000        100            0.03259871   
     24500   297.66527      1198.4945     -20.011897      1000000        100            0.03259871   
     24600   302.35245      1217.4437      61.144002      1000000        100            0.03259871   
     24700   304.1979       1240.5198      52.786941      1000000        100            0.03259871   
     24800   304.36102      1245.3358      2.9633916      1000000        100            0.03259871   
     24900   302.58781      1223.6028      23.421424      1000000        100            0.03259871   
     25000   297.13498      1195.6915     -13.308655      1000000        100            0.03259871   
     25100   292.21052      1217.5442      31.490597      1000000        100            0.03259871   
     25200   296.3298       1234.5193      43.304418      1000000        100            0.03259871   
     25300   306.83162      1206.3455      30.447381      1000000        100            0.03259871   
     25400   305.94636      1225.0051     -47.210103      1000000        100            0.03259871   
     25500   299.78041      1242.7518     -38.816704      1000000        100            0.03259871   
     25600   289.12388      1312.2926     -16.235395      1000000        100            0.03259871   
     25700   296.63884      1263.9655      11.078908      1000000        100            0.03259871   
     25800   307.85988      1207.8542     -3.1737851      1000000        100            0.03259871   
     25900   302.97071      1264.6949     -35.032755      1000000        100            0.03259871   
     26000   302.77961      1236.4216     -16.513464      1000000        100            0.03259871   
     26100   300.77979      1215.8735      24.443693      1000000        100            0.03259871   
     26200   298.27456      1255.0069      31.754906      1000000        100            0.03259871   
     26300   301.40784      1252.365       16.178734      1000000        100            0.03259871   
     26400   300.78352      1240.5639      17.217258      1000000        100            0.03259871   
     26500   300.19553      1208.3764      11.400229      1000000        100            0.03259871   
     26600   298.16434      1220.2542      35.819548      1000000        100            0.03259871   
     26700   302.62332      1205.9268      4.643053       1000000        100            0.03259871   
     26800   300.11356      1248.6337     -8.4315552      1000000        100            0.03259871   
     26900   300.90241      1237.9713     -25.700606      1000000        100            0.03259871   
     27000   299.65291      1227.0572      18.221608      1000000        100            0.03259871   
     27100   296.47819      1220.3706      76.858823      1000000        100            0.03259871   
     27200   294.01418      1249.4369      4.9556132      1000000        100            0.03259871   
     27300   305.2607       1199.4907      36.880082      1000000        100            0.03259871   
     27400   309.28239      1202.6736      8.2026143      1000000        100            0.03259871   
     27500   301.57662      1221.6999     -0.59575444     1000000        100            0.03259871   
     27600   291.29946      1213.9364      28.472579      1000000        100            0.03259871   
     27700   299.68651      1114.7979     -14.046546      1000000        100            0.03259871   
     27800   298.18923      1230.2299      1.0006999      1000000        100            0.03259871   
     27900   303.81442      1303.1652     -6.4062862      1000000        100            0.03259871   
     28000   309.65459      1240.1938      32.768127      1000000        100            0.03259871   
     28100   302.16782      1181.0045      36.77717       1000000        100            0.03259871   
     28200   292.34942      1197.9874      3.6388205      1000000        100            0.03259871   
     28300   300.85887      1172.4168      73.726369      1000000        100            0.03259871   
     28400   305.03595      1219.3081      58.056698      1000000        100            0.03259871   
     28500   303.7142       1242.5346      78.616636      1000000        100            0.03259871   
     28600   303.96924      1201.0371      64.217999      1000000        100            0.03259871   
     28700   298.63182      1201.6588      19.903552      1000000        100            0.03259871   
     28800   294.29196      1226.9687      52.236478      1000000        100            0.03259871   
     28900   303.76903      1167.0145      51.867989      1000000        100            0.03259871   
     29000   302.13091      1218.1358      17.07779       1000000        100            0.03259871   
     29100   301.16525      1231.3509      13.106403      1000000        100            0.03259871   
     29200   294.382        1275.1283     -29.592972      1000000        100            0.03259871   
     29300   302.08193      1204.4051      0.7834575      1000000        100            0.03259871   
     29400   302.01558      1203.8909      2.4828388      1000000        100            0.03259871   
     29500   298.29767      1227.8256      15.778025      1000000        100            0.03259871   
     29600   293.60375      1291.322      -7.8876305      1000000        100            0.03259871   
     29700   304.33501      1241.2454     -11.26695       1000000        100            0.03259871   
     29800   300.16835      1304.7136      23.564498      1000000        100            0.03259871   
     29900   304.67695      1221.5205     -9.6425498      1000000        100            0.03259871   
     30000   296.74213      1225.6807     -22.374748      1000000        100            0.03259871   
     30100   298.0701       1196.2418      23.656461      1000000        100            0.03259871   
     30200   303.43596      1189.0525      36.090616      1000000        100            0.03259871   
     30300   304.11694      1218.231       28.403829      1000000        100            0.03259871   
     30400   300.57363      1250.2096     -65.40914       1000000        100            0.03259871   
     30500   302.12017      1186.4202      73.439061      1000000        100            0.03259871   
     30600   296.19857      1183.0585      6.643998       1000000        100            0.03259871   
     30700   298.15514      1170.097       30.928486      1000000        100            0.03259871   
     30800   299.1136       1217.5038      2.6518523      1000000        100            0.03259871   
     30900   303.41622      1213.9693      18.507262      1000000        100            0.03259871   
     31000   302.74317      1216.1639      31.168244      1000000        100            0.03259871   
     31100   293.23263      1275.5304      5.2274644      1000000        100            0.03259871   
     31200   300.50745      1193.6842     -1.779779       1000000        100            0.03259871   
     31300   301.69065      1187.378       0.37419435     1000000        100            0.03259871   
     31400   298.93467      1214.9403      42.953047      1000000        100            0.03259871   
     31500   303.62143      1183.6992     -8.4276668      1000000        100            0.03259871   
     31600   306.11036      1190.0739     -2.2931283      1000000        100            0.03259871   
     31700   301.95535      1230.4571     -2.5625281      1000000        100            0.03259871   
     31800   304.0213       1183.4713     -8.132079       1000000        100            0.03259871   
     31900   299.37162      1181.083       41.114626      1000000        100            0.03259871   
     32000   292.32607      1218.712       27.229163      1000000        100            0.03259871   
     32100   306.42385      1139.5847     -17.772822      1000000        100            0.03259871   
     32200   305.20138      1233.5234      70.857389      1000000        100            0.03259871   
     32300   303.79385      1230.2861      11.175811      1000000        100            0.03259871   
     32400   298.76124      1203.585      -40.28003       1000000        100            0.03259871   
     32500   296.99032      1205.3927      11.044056      1000000        100            0.03259871   
     32600   298.85966      1206.8878      26.408361      1000000        100            0.03259871   
     32700   301.77022      1199.7218     -14.864891      1000000        100            0.03259871   
     32800   306.46238      1151.0098      8.588625       1000000        100            0.03259871   
     32900   294.42927      1159.8723      16.041827      1000000        100            0.03259871   
     33000   289.49887      1193.4445      4.08025        1000000        100            0.03259871   
     33100   301.73115      1160.1032      28.972312      1000000        100            0.03259871   
     33200   302.95872      1174.6495     -21.694287      1000000        100            0.03259871   
     33300   298.55112      1202.8347      45.765164      1000000        100            0.03259871   
     33400   299.68672      1139.8717      34.510757      1000000        100            0.03259871   
     33500   289.89407      1155.8195      14.920715      1000000        100            0.03259871   
     33600   297.03186      1153.5682      8.2370589      1000000        100            0.03259871   
     33700   302.24593      1186.7227      3.1198058      1000000        100            0.03259871   
     33800   300.78707      1228.3214      20.492942      1000000        100            0.03259871   
     33900   303.414        1183.1063      2.4628254      1000000        100            0.03259871   
     34000   295.86831      1190.8688      29.265732      1000000        100            0.03259871   
     34100   296.37874      1151.9932      5.8775454      1000000        100            0.03259871   
     34200   307.00286      1164.0005      48.452652      1000000        100            0.03259871   
     34300   306.30371      1196.3326      24.562843      1000000        100            0.03259871   
     34400   297.92853      1235.7995      15.01005       1000000        100            0.03259871   
     34500   295.70216      1198.5029      83.137932      1000000        100            0.03259871   
     34600   299.91806      1122.7718     -10.052539      1000000        100            0.03259871   
     34700   298.96159      1212.6842     -15.024674      1000000        100            0.03259871   
     34800   309.54016      1198.2988      16.212732      1000000        100            0.03259871   
     34900   300.2014       1261.211      -2.5205883      1000000        100            0.03259871   
     35000   298.24096      1197.5358     -10.252055      1000000        100            0.03259871   
     35100   298.49954      1168.7011      6.4680893      1000000        100            0.03259871   
     35200   298.32322      1205.6599     -24.414841      1000000        100            0.03259871   
     35300   308.56644      1205.7489      53.223086      1000000        100            0.03259871   
     35400   308.92224      1195.9553      13.119279      1000000        100            0.03259871   
     35500   303.87976      1199.3354      26.048362      1000000        100            0.03259871   
     35600   300.95455      1176.1112      25.354994      1000000        100            0.03259871   
     35700   294.32142      1205.0107     -22.264974      1000000        100            0.03259871   
     35800   296.72448      1217.3432      12.512712      1000000        100            0.03259871   
     35900   307.26302      1215.5658     -22.220711      1000000        100            0.03259871   
     36000   308.68223      1201.9249     -4.3083567      1000000        100            0.03259871   
     36100   296.4661       1248.8961     -1.2243857      1000000        100            0.03259871   
     36200   299.58434      1197.4684      64.360659      1000000        100            0.03259871   
     36300   304.24923      1131.3448     -21.770678      1000000        100            0.03259871   
     36400   298.7547       1141.885       21.097474      1000000        100            0.03259871   
     36500   300.10434      1141.2264      13.439032      1000000        100            0.03259871   
     36600   298.98353      1254.2377     -23.26145       1000000        100            0.03259871   
     36700   303.3374       1231.1962      16.983751      1000000        100            0.03259871   
     36800   298.1275       1229.2036      25.924298      1000000        100            0.03259871   
     36900   297.35666      1162.2118      50.315351      1000000        100            0.03259871   
     37000   291.63721      1195.8289      73.273503      1000000        100            0.03259871   
     37100   304.96934      1218.1296      15.993711      1000000        100            0.03259871   
     37200   306.00158      1207.6048      13.623305      1000000        100            0.03259871   
     37300   296.35608      1230.3813     -29.4245        1000000        100            0.03259871   
     37400   299.3694       1175.8683     -48.354755      1000000        100            0.03259871   
     37500   296.33415      1231.3812     -83.679236      1000000        100            0.03259871   
     37600   309.00668      1202.6737     -12.236923      1000000        100            0.03259871   
     37700   306.1748       1241.2035     -15.643506      1000000        100            0.03259871   
     37800   304.9067       1198.4204      27.469096      1000000        100            0.03259871   
     37900   298.12741      1235.3548      26.692613      1000000        100            0.03259871   
     38000   297.8906       1238.8404      54.344705      1000000        100            0.03259871   
     38100   302.03089      1238.0874      21.673595      1000000        100            0.03259871   
     38200   308.20363      1227.7272      40.757669      1000000        100            0.03259871   
     38300   302.29865      1262.1775     -24.475218      1000000        100            0.03259871   
     38400   291.35045      1256.5047      53.5649        1000000        100            0.03259871   
     38500   296.06825      1228.1391      29.930178      1000000        100            0.03259871   
     38600   299.47704      1270.342      -7.739803       1000000        100            0.03259871   
     38700   306.94794      1225.0078     -15.553866      1000000        100            0.03259871   
     38800   299.54783      1268.3542     -15.770701      1000000        100            0.03259871   
     38900   300.55404      1240.6525     -19.522461      1000000        100            0.03259871   
     39000   297.16564      1265.5688      30.884791      1000000        100            0.03259871   
     39100   299.8299       1236.7222     -31.374596      1000000        100            0.03259871   
     39200   300.53278      1223.4015     -1.1193537      1000000        100            0.03259871   
     39300   301.80103      1201.8946      11.037959      1000000        100            0.03259871   
     39400   305.48455      1144.9069     -17.803192      1000000        100            0.03259871   
     39500   292.72586      1245.0007      4.0129206      1000000        100            0.03259871   
     39600   297.80275      1249.266      -25.36014       1000000        100            0.03259871   
     39700   306.67924      1239.5266     -25.315921      1000000        100            0.03259871   
     39800   300.63562      1276.944       0.66496332     1000000        100            0.03259871   
     39900   295.95088      1233.608       4.3789209      1000000        100            0.03259871   
     40000   295.98239      1193.1576      3.0585795      1000000        100            0.03259871   
     40100   294.60541      1226.8824      4.4185499      1000000        100            0.03259871   
     40200   303.9546       1187.3742     -4.7560988      1000000        100            0.03259871   
     40300   299.145        1289.1108     -11.60095       1000000        100            0.03259871   
     40400   298.7942       1311.655      -17.186739      1000000        100            0.03259871   
     40500   292.10219      1282.0787     -11.096088      1000000        100            0.03259871   
     40600   287.51457      1264.1933     -51.246966      1000000        100            0.03259871   
     40700   294.30106      1261.1772      5.7620455      1000000        100            0.03259871   
     40800   302.96885      1253.0772     -27.146476      1000000        100            0.03259871   
     40900   294.9502       1358.8555      0.90467381     1000000        100            0.03259871   
     41000   302.80695      1281.8148     -30.459943      1000000        100            0.03259871   
     41100   296.43431      1240.5447     -41.278312      1000000        100            0.03259871   
     41200   292.22875      1238.4718     -20.577388      1000000        100            0.03259871   
     41300   295.1114       1251.32        0.90066857     1000000        100            0.03259871   
     41400   299.17485      1268.0302     -12.621258      1000000        100            0.03259871   
     41500   298.48072      1298.1076      34.446756      1000000        100            0.03259871   
     41600   298.51167      1301.8932      34.576393      1000000        100            0.03259871   
     41700   300.09375      1277.5571      6.4529338      1000000        100            0.03259871   
     41800   298.51121      1278.2778     -22.937978      1000000        100            0.03259871   
     41900   298.25177      1282.3767      34.53823       1000000        100            0.03259871   
     42000   297.21607      1298.6686      41.394608      1000000        100            0.03259871   
     42100   303.55188      1252.53        6.3491655      1000000        100            0.03259871   
     42200   299.80177      1299.8937      59.324         1000000        100            0.03259871   
     42300   304.05341      1243.337      -47.546812      1000000        100            0.03259871   
     42400   302.43777      1200.271      -86.45119       1000000        100            0.03259871   
     42500   294.13951      1232.3735     -63.462432      1000000        100            0.03259871   
     42600   296.59903      1227.1707     -84.354704      1000000        100            0.03259871   
     42700   303.64914      1271.2394      7.0224621      1000000        100            0.03259871   
     42800   302.09082      1301.6096      39.009768      1000000        100            0.03259871   
     42900   300.8104       1279.1835      18.879734      1000000        100            0.03259871   
     43000   302.76294      1198.083       6.1339235      1000000        100            0.03259871   
     43100   300.77118      1133.2844      19.452796      1000000        100            0.03259871   
     43200   293.71736      1163.0294      113.69871      1000000        100            0.03259871   
     43300   296.34655      1225.4743     -16.009667      1000000        100            0.03259871   
     43400   300.08651      1275.878       9.4468024      1000000        100            0.03259871   
     43500   302.73297      1262.2016      12.42789       1000000        100            0.03259871   
     43600   296.11549      1271.1427      10.926778      1000000        100            0.03259871   
     43700   294.06238      1237.823      -61.435857      1000000        100            0.03259871   
     43800   292.32831      1274.1754     -35.047199      1000000        100            0.03259871   
     43900   300.65756      1317.8169     -63.584166      1000000        100            0.03259871   
     44000   301.84044      1316.9555     -39.379221      1000000        100            0.03259871   
     44100   300.64361      1269.6646     -50.850522      1000000        100            0.03259871   
     44200   299.69284      1233.0414     -32.994281      1000000        100            0.03259871   
     44300   291.1928       1334.1401     -3.5213244      1000000        100            0.03259871   
     44400   309.37826      1292.8255      65.08847       1000000        100            0.03259871   
     44500   305.09516      1330.8258      60.718086      1000000        100            0.03259871   
     44600   301.17471      1303.3215      67.906267      1000000        100            0.03259871   
     44700   296.22385      1294.319       51.476214      1000000        100            0.03259871   
     44800   296.37087      1282.3708      56.796332      1000000        100            0.03259871   
     44900   300.51164      1252.8456      30.43779       1000000        100            0.03259871   
     45000   304.66892      1217.5004     -51.056206      1000000        100            0.03259871   
     45100   304.0629       1224.5738      21.07145       1000000        100            0.03259871   
     45200   301.04535      1357.6112      12.770746      1000000        100            0.03259871   
     45300   306.81491      1334.932      -34.849591      1000000        100            0.03259871   
     45400   299.04681      1309.5511      12.877865      1000000        100            0.03259871   
     45500   298.62842      1252.2215      61.669873      1000000        100            0.03259871   
     45600   297.32637      1237.0727      12.413065      1000000        100            0.03259871   
     45700   300.20617      1247.4004      15.682089      1000000        100            0.03259871   
     45800   302.08355      1322.3295     -3.7628843      1000000        100            0.03259871   
     45900   305.89513      1295.8132      1.0116645      1000000        100            0.03259871   
     46000   308.64022      1204.0592     -10.602897      1000000        100            0.03259871   
     46100   304.39569      1219.6129      4.0241618      1000000        100            0.03259871   
     46200   296.11467      1264.243      -27.031089      1000000        100            0.03259871   
     46300   298.60107      1202.9922      10.897095      1000000        100            0.03259871   
     46400   300.55042      1212.6772     -8.8051983      1000000        100            0.03259871   
     46500   303.80011      1287.344      -72.125942      1000000        100            0.03259871   
     46600   304.17813      1275.2044     -29.67996       1000000        100            0.03259871   
     46700   296.15944      1289.2714     -21.714572      1000000        100            0.03259871   
     46800   297.80341      1225.9723      26.780591      1000000        100            0.03259871   
     46900   298.47841      1233.1724      12.68657       1000000        100            0.03259871   
     47000   298.85983      1257.058       66.051658      1000000        100            0.03259871   
     47100   301.56021      1254.4827      60.504911      1000000        100            0.03259871   
     47200   298.82171      1257.2887      0.4102878      1000000        100            0.03259871   
     47300   293.86404      1197.3272      39.345446      1000000        100            0.03259871   
     47400   295.05166      1205.7099      5.120793       1000000        100            0.03259871   
     47500   306.35841      1193.1845      6.9088268      1000000        100            0.03259871   
     47600   303.04484      1248.7364     -21.162324      1000000        100            0.03259871   
     47700   296.09312      1277.6347      16.899566      1000000        100            0.03259871   
     47800   291.62257      1265.636      -54.71789       1000000        100            0.03259871   
     47900   294.39073      1254.7486     -6.1007176      1000000        100            0.03259871   
     48000   295.81735      1366.6414     -9.7918611      1000000        100            0.03259871   
     48100   302.07061      1321.4878      45.03622       1000000        100            0.03259871   
     48200   298.32383      1301.4322     -10.241743      1000000        100            0.03259871   
     48300   297.60113      1239.3163      11.385537      1000000        100            0.03259871   
     48400   296.14767      1259.7875     -19.705814      1000000        100            0.03259871   
     48500   306.76944      1209.0716      29.932802      1000000        100            0.03259871   
     48600   303.51075      1293.6001      5.8065957      1000000        100            0.03259871   
     48700   307.45297      1356.0585      8.8502655      1000000        100            0.03259871   
     48800   308.0012       1271.0198      6.389362       1000000        100            0.03259871   
     48900   303.82896      1237.3697      24.494584      1000000        100            0.03259871   
     49000   296.92423      1265.1491      54.47914       1000000        100            0.03259871   
     49100   301.40891      1241.7876      41.433986      1000000        100            0.03259871   
     49200   297.21044      1366.6009      80.483212      1000000        100            0.03259871   
     49300   305.00028      1334.5067     -11.129243      1000000        100            0.03259871   
     49400   300.63873      1295.347      -26.05285       1000000        100            0.03259871   
     49500   293.673        1272.9014      24.682032      1000000        100            0.03259871   
     49600   299.37957      1257.6157     -19.522245      1000000        100            0.03259871   
     49700   303.53237      1282.7907     -46.232562      1000000        100            0.03259871   
     49800   302.7141       1286.4703     -45.420612      1000000        100            0.03259871   
     49900   296.09494      1263.8317     -41.320354      1000000        100            0.03259871   
     50000   296.34268      1224.8956     -50.816317      1000000        100            0.03259871   
     50100   299.22855      1220.808      -57.79485       1000000        100            0.03259871   
     50200   298.29076      1259.7816     -6.3920957      1000000        100            0.03259871   
     50300   304.75166      1238.8788     -0.65571218     1000000        100            0.03259871   
     50400   304.76037      1261.8505     -56.416219      1000000        100            0.03259871   
     50500   310.2775       1190.9283     -35.219929      1000000        100            0.03259871   
     50600   300.92515      1188.1729     -25.668664      1000000        100            0.03259871   
     50700   294.65408      1207.4649     -1.9223343      1000000        100            0.03259871   
     50800   299.90252      1198.6939     -16.601052      1000000        100            0.03259871   
     50900   299.39006      1297.6107      2.4712512      1000000        100            0.03259871   
     51000   300.90812      1287.1994     -1.2818577      1000000        100            0.03259871   
     51100   303.9019       1212.9974     -9.2605401      1000000        100            0.03259871   
     51200   297.75523      1211.5407      1.6556077      1000000        100            0.03259871   
     51300   293.97393      1253.8389     -9.572441       1000000        100            0.03259871   
     51400   297.48381      1289.7134     -19.554103      1000000        100            0.03259871   
     51500   306.47204      1223.5677      16.371131      1000000        100            0.03259871   
     51600   302.04269      1240.6206      29.969023      1000000        100            0.03259871   
     51700   301.60356      1204.1649     -15.462443      1000000        100            0.03259871   
     51800   291.66233      1264.4764      10.009348      1000000        100            0.03259871   
     51900   297.84819      1272.1024     -5.1898263      1000000        100            0.03259871   
     52000   308.33539      1254.2403     -4.514001       1000000        100            0.03259871   
     52100   302.42436      1275.8471      0.16482898     1000000        100            0.03259871   
     52200   298.73822      1230.967       39.680889      1000000        100            0.03259871   
     52300   299.19665      1209.9849      15.988703      1000000        100            0.03259871   
     52400   299.5441       1244.2696      7.8372544      1000000        100            0.03259871   
     52500   301.26092      1263.8597      31.128183      1000000        100            0.03259871   
     52600   307.00603      1212.5319      46.798802      1000000        100            0.03259871   
     52700   305.97245      1203.3662      43.214074      1000000        100            0.03259871   
     52800   294.74779      1303.8672     -7.5601291      1000000        100            0.03259871   
     52900   297.17442      1286.3748     -48.596383      1000000        100            0.03259871   
     53000   303.54684      1278.9527     -43.307213      1000000        100            0.03259871   
     53100   310.66238      1252.8178     -10.412136      1000000        100            0.03259871   
     53200   300.37532      1270.2247     -13.025081      1000000        100            0.03259871   
     53300   300.59352      1218.1773      30.628863      1000000        100            0.03259871   
     53400   299.11174      1240.9267     -14.728758      1000000        100            0.03259871   
     53500   298.03739      1286.1007     -43.908154      1000000        100            0.03259871   
     53600   302.95779      1313.8315      15.181613      1000000        100            0.03259871   
     53700   311.92294      1313.5207      15.98918       1000000        100            0.03259871   
     53800   301.38809      1320.8334     -56.210413      1000000        100            0.03259871   
     53900   299.972        1267.8515     -0.9620191      1000000        100            0.03259871   
     54000   297.68203      1246.5347      6.8595209      1000000        100            0.03259871   
     54100   290.04444      1265.0695     -0.89066838     1000000        100            0.03259871   
     54200   297.58774      1171.3334      45.454962      1000000        100            0.03259871   
     54300   303.29682      1182.0115      95.35906       1000000        100            0.03259871   
     54400   303.03082      1256.0102      34.408519      1000000        100            0.03259871   
     54500   298.76272      1252.5357      58.566905      1000000        100            0.03259871   
     54600   304.16707      1127.1202      30.443922      1000000        100            0.03259871   
     54700   294.19081      1208.8779      37.333823      1000000        100            0.03259871   
     54800   303.9605       1142.9914     -5.3186986      1000000        100            0.03259871   
     54900   304.16847      1136.0512      48.855498      1000000        100            0.03259871   
     55000   301.81219      1097.204      -9.2286809      1000000        100            0.03259871   
     55100   294.83056      1130.9356     -14.10735       1000000        100            0.03259871   
     55200   298.75987      1176.6921      11.811013      1000000        100            0.03259871   
     55300   301.32729      1208.1506      48.706563      1000000        100            0.03259871   
     55400   298.54313      1227.3089      55.287106      1000000        100            0.03259871   
     55500   296.56984      1192.911       47.222962      1000000        100            0.03259871   
     55600   296.72866      1165.2668      30.57214       1000000        100            0.03259871   
     55700   300.65681      1131.5298      8.6937588      1000000        100            0.03259871   
     55800   300.53487      1148.2665      48.477383      1000000        100            0.03259871   
     55900   296.5096       1194.1204     -69.404616      1000000        100            0.03259871   
     56000   300.39558      1172.1902     -49.95255       1000000        100            0.03259871   
     56100   302.25796      1195.173       33.768655      1000000        100            0.03259871   
     56200   303.10195      1220.6921     -8.9207156      1000000        100            0.03259871   
     56300   301.07495      1223.1373     -60.220303      1000000        100            0.03259871   
     56400   293.5592       1209.9446     -45.918148      1000000        100            0.03259871   
     56500   295.7072       1193.326      -17.299694      1000000        100            0.03259871   
     56600   296.18477      1291.3905     -50.448562      1000000        100            0.03259871   
     56700   302.55885      1243.2998     -20.494213      1000000        100            0.03259871   
     56800   299.41743      1230.9366      8.4277017      1000000        100            0.03259871   
     56900   297.05344      1241.7594      1.8008016      1000000        100            0.03259871   
     57000   299.82531      1207.8197      3.6735178      1000000        100            0.03259871   
     57100   301.88621      1170.5886     -6.8269601      1000000        100            0.03259871   
     57200   303.89685      1156.6791      10.614731      1000000        100            0.03259871   
     57300   298.38245      1246.0217     -28.554587      1000000        100            0.03259871   
     57400   303.13214      1223.7276     -11.596077      1000000        100            0.03259871   
     57500   294.9876       1234.2372      43.488069      1000000        100            0.03259871   
     57600   297.32873      1153.2418     -34.703443      1000000        100            0.03259871   
     57700   297.4121       1214.8276     -12.906421      1000000        100            0.03259871   
     57800   301.74097      1229.5309     -39.973822      1000000        100            0.03259871   
     57900   307.67648      1159.7005     -57.743811      1000000        100            0.03259871   
     58000   296.15523      1213.1608     -6.9451455      1000000        100            0.03259871   
     58100   300.56687      1148.2835     -24.155136      1000000        100            0.03259871   
     58200   296.31002      1272.2719     -20.323381      1000000        100            0.03259871   
     58300   300.56812      1305.3961     -6.4054373      1000000        100            0.03259871   
     58400   312.37608      1147.4285     -37.136204      1000000        100            0.03259871   
     58500   301.26303      1169.1144      15.99254       1000000        100            0.03259871   
     58600   291.31463      1228.6151     -23.747517      1000000        100            0.03259871   
     58700   299.80314      1150.2853     -27.597183      1000000        100            0.03259871   
     58800   299.06965      1228.1444     -7.6274098      1000000        100            0.03259871   
     58900   297.71564      1316.9659      2.5536128      1000000        100            0.03259871   
     59000   303.55913      1213.4351     -61.587154      1000000        100            0.03259871   
     59100   300.76893      1182.7597     -49.000821      1000000        100            0.03259871   
     59200   299.49044      1179.8023      5.4503311      1000000        100            0.03259871   
     59300   300.93538      1161.0195      42.675641      1000000        100            0.03259871   
     59400   297.86623      1186.0033      3.1646154      1000000        100            0.03259871   
     59500   297.75396      1233.3116      33.717963      1000000        100            0.03259871   
     59600   301.82764      1234.3888      64.324832      1000000        100            0.03259871   
     59700   300.66086      1216.6609      57.218249      1000000        100            0.03259871   
     59800   299.34045      1154.4815      64.741262      1000000        100            0.03259871   
     59900   299.00778      1104.7535     -26.108792      1000000        100            0.03259871   
     60000   298.67954      1154.408      -21.879744      1000000        100            0.03259871   
     60100   297.51429      1267.2085     -37.112708      1000000        100            0.03259871   
     60200   299.82688      1232.2712     -23.717818      1000000        100            0.03259871   
     60300   304.36088      1144.5945     -25.398739      1000000        100            0.03259871   
     60400   296.79487      1199.8585     -39.07701       1000000        100            0.03259871   
     60500   301.82258      1195.7415     -52.410608      1000000        100            0.03259871   
     60600   303.96463      1259.1192      10.418841      1000000        100            0.03259871   
     60700   302.58229      1266.7128     -37.857174      1000000        100            0.03259871   
     60800   294.04286      1238.1102     -8.0638511      1000000        100            0.03259871   
     60900   295.77761      1199.0125      14.810031      1000000        100            0.03259871   
     61000   304.6362       1156.0859      33.612099      1000000        100            0.03259871   
     61100   302.2283       1233.6812      22.60854       1000000        100            0.03259871   
     61200   307.30377      1205.5759      72.556588      1000000        100            0.03259871   
     61300   294.00825      1245.7882      27.998506      1000000        100            0.03259871   
     61400   295.82918      1155.7296      9.2127966      1000000        100            0.03259871   
     61500   292.55592      1232.653       22.09065       1000000        100            0.03259871   
     61600   300.6694       1227.4795      0.22566232     1000000        100            0.03259871   
     61700   299.17691      1274.1148     -7.5427969      1000000        100            0.03259871   
     61800   302.21306      1253.0775      31.865594      1000000        100            0.03259871   
     61900   302.11638      1206.6498      47.218059      1000000        100            0.03259871   
     62000   294.22659      1182.2274      55.811438      1000000        100            0.03259871   
     62100   298.5704       1165.0765      13.33071       1000000        100            0.03259871   
     62200   294.09376      1283.9679      6.7137937      1000000        100            0.03259871   
     62300   300.81898      1247.171       37.180416      1000000        100            0.03259871   
     62400   306.27138      1188.4939      5.8188675      1000000        100            0.03259871   
     62500   299.31257      1221.7307      13.369357      1000000        100            0.03259871   
     62600   288.90987      1222.9988      1.6312357      1000000        100            0.03259871   
     62700   297.99818      1119.6157     -42.761992      1000000        100            0.03259871   
     62800   297.05044      1207.1807      24.752976      1000000        100            0.03259871   
     62900   304.12781      1181.5975      51.125793      1000000        100            0.03259871   
     63000   302.52478      1202.727      -48.190256      1000000        100            0.03259871   
     63100   301.21199      1181.3735     -5.7122925      1000000        100            0.03259871   
     63200   293.84957      1173.3505     -47.055245      1000000        100            0.03259871   
     63300   293.14134      1151.0606      1.4834669      1000000        100            0.03259871   
     63400   307.7132       1134.5408      19.037244      1000000        100            0.03259871   
     63500   307.15647      1181.0464     -38.966853      1000000        100            0.03259871   
     63600   298.19705      1231.6734      16.816028      1000000        100            0.03259871   
     63700   299.27506      1178.5542     -37.479923      1000000        100            0.03259871   
     63800   296.05847      1172.0313     -39.52898       1000000        100            0.03259871   
     63900   290.68812      1213.8742      1.5177033      1000000        100            0.03259871   
     64000   302.64699      1196.1414      23.153621      1000000        100            0.03259871   
     64100   304.1285       1226.279       3.2078887      1000000        100            0.03259871   
     64200   304.89986      1179.0408      73.385466      1000000        100            0.03259871   
     64300   296.61294      1181.8025     -13.814726      1000000        100            0.03259871   
     64400   296.73325      1172.3069      26.437297      1000000        100            0.03259871   
     64500   301.4594       1150.6349      24.088513      1000000        100            0.03259871   
     64600   299.03059      1197.8558     -47.745006      1000000        100            0.03259871   
     64700   305.36233      1184.3545      26.403362      1000000        100            0.03259871   
     64800   304.48268      1203.6702      54.434726      1000000        100            0.03259871   
     64900   297.06247      1172.6001      46.091585      1000000        100            0.03259871   
     65000   288.52002      1206.6838     -35.881957      1000000        100            0.03259871   
     65100   298.11212      1170.9577     -31.056177      1000000        100            0.03259871   
     65200   307.29909      1155.2828     -15.269214      1000000        100            0.03259871   
     65300   305.17464      1175.539       12.543877      1000000        100            0.03259871   
     65400   299.30754      1197.9606      30.7175        1000000        100            0.03259871   
     65500   297.78804      1198.8789     -34.606402      1000000        100            0.03259871   
     65600   296.93041      1228.6681     -5.8708928      1000000        100            0.03259871   
     65700   308.83793      1241.22       -1.5928387      1000000        100            0.03259871   
     65800   304.85361      1309.6423      29.521784      1000000        100            0.03259871   
     65900   305.78569      1206.0397      32.343607      1000000        100            0.03259871   
     66000   301.84786      1172.0523      11.883525      1000000        100            0.03259871   
     66100   296.59173      1176.4518     -25.991044      1000000        100            0.03259871   
     66200   298.84176      1158.7453      12.174476      1000000        100            0.03259871   
     66300   302.90119      1190.6303      10.92731       1000000        100            0.03259871   
     66400   303.67786      1253.9122     -76.79157       1000000        100            0.03259871   
     66500   302.41894      1222.027      -36.996608      1000000        100            0.03259871   
     66600   293.29715      1254.4346      6.563065       1000000        100            0.03259871   
     66700   296.74132      1214.7764     -1.0420211      1000000        100            0.03259871   
     66800   300.02915      1183.6549     -1.0740617      1000000        100            0.03259871   
     66900   295.85015      1229.1562     -1.441149       1000000        100            0.03259871   
     67000   301.16039      1162.1469      49.28629       1000000        100            0.03259871   
     67100   292.92522      1124.6855     -36.035697      1000000        100            0.03259871   
     67200   296.13764      1086.3154     -17.169682      1000000        100            0.03259871   
     67300   298.28495      1157.6344     -3.2662442      1000000        100            0.03259871   
     67400   295.4878       1230.1946      4.92397        1000000        100            0.03259871   
     67500   300.24414      1192.8624     -1.6662643      1000000        100            0.03259871   
     67600   301.98073      1152.6619      23.648832      1000000        100            0.03259871   
     67700   300.90147      1165.5679      31.337518      1000000        100            0.03259871   
     67800   298.65255      1237.0484     -4.390801       1000000        100            0.03259871   
     67900   302.00806      1255.6142     -25.387682      1000000        100            0.03259871   
     68000   307.90734      1194.3986      19.840689      1000000        100            0.03259871   
     68100   294.15113      1214.7642      15.183913      1000000        100            0.03259871   
     68200   294.89885      1194.9089     -14.694988      1000000        100            0.03259871   
     68300   294.92023      1242.5993     -21.578824      1000000        100            0.03259871   
     68400   308.78567      1166.7826      16.663924      1000000        100            0.03259871   
     68500   298.15497      1259.3059      5.1827329      1000000        100            0.03259871   
     68600   298.28759      1237.9725     -26.607221      1000000        100            0.03259871   
     68700   301.9596       1178.4585     -23.013566      1000000        100            0.03259871   
     68800   302.73934      1141.6171      0.65519504     1000000        100            0.03259871   
     68900   290.23108      1180.1027      6.9589994      1000000        100            0.03259871   
     69000   300.50718      1118.3809      15.671159      1000000        100            0.03259871   
     69100   302.01389      1197.4619      47.142298      1000000        100            0.03259871   
     69200   305.72265      1175.5481      47.740131      1000000        100            0.03259871   
     69300   302.9689       1181.3296     -25.799647      1000000        100            0.03259871   
     69400   298.07119      1155.1907     -42.664483      1000000        100            0.03259871   
     69500   292.88606      1148.4372     -8.5096621      1000000        100            0.03259871   
     69600   305.25626      1111.3984     -71.470919      1000000        100            0.03259871   
     69700   303.60892      1196.1229     -66.520323      1000000        100            0.03259871   
     69800   304.75857      1162.276       23.231748      1000000        100            0.03259871   
     69900   299.47228      1167.6693     -41.168836      1000000        100            0.03259871   
     70000   289.95021      1219.6006     -80.208278      1000000        100            0.03259871   
     70100   293.53747      1242.5838      9.4710122      1000000        100            0.03259871   
     70200   307.73117      1200.1005     -24.308521      1000000        100            0.03259871   
     70300   305.57339      1211.6191     -27.456163      1000000        100            0.03259871   
     70400   296.71719      1231.9104     -19.4025        1000000        100            0.03259871   
     70500   296.35609      1205.6034     -19.634555      1000000        100            0.03259871   
     70600   305.32777      1212.0975      15.844641      1000000        100            0.03259871   
     70700   307.88015      1256.238      -24.477867      1000000        100            0.03259871   
     70800   303.67747      1247.1621     -29.081133      1000000        100            0.03259871   
     70900   301.13187      1191.7754      50.857305      1000000        100            0.03259871   
     71000   296.06733      1215.7164      4.6798506      1000000        100            0.03259871   
     71100   304.53259      1157.0697      39.452622      1000000        100            0.03259871   
     71200   301.84547      1232.8987      42.797821      1000000        100            0.03259871   
     71300   304.32653      1317.4403      76.954304      1000000        100            0.03259871   
     71400   310.00544      1226.112       22.851926      1000000        100            0.03259871   
     71500   304.631        1194.1473      11.470738      1000000        100            0.03259871   
     71600   296.7941       1238.1571      53.327225      1000000        100            0.03259871   
     71700   296.64286      1254.0406      12.10901       1000000        100            0.03259871   
     71800   299.88182      1251.859       4.0386771      1000000        100            0.03259871   
     71900   301.95638      1287.3287      17.976993      1000000        100            0.03259871   
     72000   307.37365      1234.0783     -10.418373      1000000        100            0.03259871   
     72100   296.85512      1224.4101     -19.187749      1000000        100            0.03259871   
     72200   295.64871      1217.6586     -9.0093665      1000000        100            0.03259871   
     72300   303.88541      1176.1651     -36.687389      1000000        100            0.03259871   
     72400   301.46324      1252.5842      41.001051      1000000        100            0.03259871   
     72500   301.50623      1296.7422      11.906881      1000000        100            0.03259871   
     72600   309.60148      1214.0305      9.4524348      1000000        100            0.03259871   
     72700   300.36919      1202.0303     -62.97592       1000000        100            0.03259871   
     72800   299.14017      1166.824      -46.160175      1000000        100            0.03259871   
     72900   299.26826      1169.2064      32.066352      1000000        100            0.03259871   
     73000   298.62591      1252.1934     -12.756339      1000000        100            0.03259871   
     73100   309.98486      1209.3887     -36.152294      1000000        100            0.03259871   
     73200   301.40929      1245.5979      17.899932      1000000        100            0.03259871   
     73300   302.06726      1198.8794     -5.9908978      1000000        100            0.03259871   
     73400   302.32693      1170.6058     -18.760851      1000000        100            0.03259871   
     73500   297.93664      1174.1197      3.65332        1000000        100            0.03259871   
     73600   294.28322      1139.2604     -49.30361       1000000        100            0.03259871   
     73700   293.19175      1104.2733      8.0169623      1000000        100            0.03259871   
     73800   298.83373      1162.3183     -3.2568389      1000000        100            0.03259871   
     73900   298.55536      1223.0131     -75.64133       1000000        100            0.03259871   
     74000   298.0525       1248.1098     -46.10908       1000000        100            0.03259871   
     74100   297.9215       1231.4416     -53.542589      1000000        100            0.03259871   
     74200   292.35674      1216.091      -26.641062      1000000        100            0.03259871   
     74300   296.54243      1146.9926     -10.778825      1000000        100            0.03259871   
[...]
   1186900   301.72609      736.67926      1204.3315      28759.965      30.638167      1.1334753    
   1187000   303.10222      646.56335      775.06347      28449.941      30.527679      1.145827     
   1187100   293.92384      694.77351     -141.21286      28750.96       30.634969      1.1338303    
   1187200   296.89817      756.16983      256.84602      28716.277      30.622646      1.1351997    
   1187300   300.47652      786.33398      2038.5068      28362.473      30.496362      1.1493606    
   1187400   303.82369      732.38968     -804.49014      28888.759      30.683834      1.128422     
   1187500   296.89556      744.10705     -1035.0677      28736.452      30.629816      1.1344028    
   1187600   298.97645      672.36836      84.544673      28623.845      30.589755      1.1388655    
   1187700   292.67521      722.04165      811.11327      28474.953      30.536623      1.1448205    
   1187800   296.69324      768.53257     -646.52533      28730.569      30.627725      1.134635     
   1187900   303.28737      774.94998     -548.14599      28709.119      30.620101      1.1354828    
   1188000   307.61475      729.3841       1539.1223      28531.257      30.556736      1.1425613    
   1188100   298.50799      729.34207      2041.1433      28459.946      30.531257      1.1454242    
   1188200   296.90589      699.82602     -2213.6269      28987.554      30.718772      1.1245761    
   1188300   294.48582      748.16524     -408.65465      28667.173      30.605181      1.1371442    
   1188400   301.73192      718.89401      1946.2956      28617.363      30.587445      1.1391235    
   1188500   299.47343      771.15132      908.57344      28532.344      30.557125      1.1425178    
   1188600   310.31043      706.48674     -1384.535       28957.627      30.708198      1.1257383    
   1188700   306.45178      784.21633     -2203.2298      29092.26       30.755714      1.1205286    
   1188800   303.76994      752.84237     -417.72153      29060.876      30.744651      1.1217387    
   1188900   302.78041      680.31708      1094.9441      28885.776      30.682778      1.1285385    
   1189000   297.11049      716.14595      555.16343      28814.211      30.657418      1.1313414    
   1189100   299.56528      728.08873     -1771.7337      28988.061      30.718952      1.1245564    
   1189200   306.35864      751.79911      843.06877      28748.032      30.633929      1.1339458    
   1189300   310.36791      754.76796      411.02075      28692.207      30.614088      1.1361521    
   1189400   301.54548      750.98731      527.34703      28790.475      30.648998      1.1322742    
   1189500   303.93831      702.49465      1451.8628      28554.841      30.565154      1.1416176    
   1189600   300.98629      715.57502      277.22206      28619.223      30.588108      1.1390495    
   1189700   292.80483      750.00539     -1567.9069      28552.346      30.564263      1.1417174    
   1189800   298.84288      673.30619      1027.0845      28283.389      30.467991      1.1525744    
   1189900   299.67695      699.58676      513.40064      28094.364      30.399964      1.1603292    
   1190000   302.90365      739.61401     -1317.1262      28385.751      30.504703      1.1484181    
   1190100   304.75466      757.85594      691.25512      28732.009      30.628237      1.1345782    
   1190200   301.49928      755.92609      835.40676      28681.536      30.610292      1.1365748    
   1190300   294.0477       715.80951      268.40265      28383.312      30.503829      1.1485168    
   1190400   299.94215      642.93672     -492.66791      28606.003      30.583397      1.1395758    
   1190500   301.66599      682.60039     -1495.8314      28806.842      30.654804      1.1316308    
   1190600   298.71907      761.20618     -2148.2277      28858.401      30.673082      1.129609     
   1190700   301.01605      757.6186       1600.9004      28957.571      30.708178      1.1257405    
   1190800   303.11409      735.45957      176.53824      28733.103      30.628626      1.134535     
   1190900   305.28086      682.2392      -522.6649       28671.108      30.606581      1.1369882    
   1191000   290.20945      715.97027     -2387.5092      28695.01       30.615084      1.1360411    
   1191100   289.48696      728.90144     -726.9534       28739.02       30.630728      1.1343014    
   1191200   293.75261      744.99449      2132.0385      28488.376      30.54142       1.1442811    
   1191300   297.67011      746.09048     -520.9092       28632.957      30.593         1.1385031    
   1191400   306.05016      704.4246       577.45626      28442.361      30.524968      1.1461324    
   1191500   306.24052      717.11081      1497.0441      28923.504      30.696131      1.1270664    
   1191600   303.59932      714.06342     -1328.9899      28717.018      30.622909      1.1351705    
   1191700   291.35924      767.94249      105.88218      28552.301      30.564247      1.1417192    
   1191800   290.79329      758.57312     -1797.0316      28750.845      30.634929      1.1338349    
   1191900   301.46069      708.64341      60.851762      28756.658      30.636993      1.1336057    
   1192000   303.62198      767.27351      910.59534      28698.682      30.61639       1.1358957    
   1192100   305.96437      763.4303       1093.1255      28681.115      30.610142      1.1365915    
   1192200   294.88216      773.91217     -362.49583      28713.19       30.621548      1.1353218    
   1192300   292.31845      730.94238      655.38191      28960.172      30.709097      1.1256394    
   1192400   293.94354      763.62165      36.452451      28729.962      30.627509      1.134659     
   1192500   300.32869      763.22201     -1553.7886      28714.592      30.622047      1.1352664    
   1192600   301.70488      765.61895      135.76586      28538.278      30.559243      1.1422802    
   1192700   301.93645      687.24402     -1034.6088      28736.381      30.62979       1.1344056    
   1192800   288.5039       742.11176     -52.434312      28661.437      30.60314       1.1373718    
   1192900   301.80017      659.7184      -1513.9482      28783.023      30.646353      1.1325673    
   1193000   302.75225      707.6192       669.03165      28534.767      30.557989      1.1424208    
   1193100   301.08902      742.56664      1285.6174      28667.094      30.605153      1.1371474    
   1193200   299.76913      745.14423      1183.6245      28711.071      30.620795      1.1354056    
   1193300   297.849        703.77729      1113.6857      28511.684      30.549747      1.1433457    
   1193400   293.17965      681.80244      653.56797      28600.439      30.581414      1.1397976    
   1193500   299.68158      658.53027     -412.62807      28421.205      30.517398      1.1469855    
   1193600   297.39452      769.639        22.680201      28506.031      30.547728      1.1435724    
   1193700   301.50685      746.8497       192.83721      28702.918      30.617896      1.1357281    
   1193800   304.03224      705.68551     -543.74447      28653.968      30.600481      1.1376683    
   1193900   300.29541      703.65502     -364.57733      28548.162      30.56277       1.1418847    
   1194000   297.11632      641.22763      1210.9471      28441.966      30.524826      1.1461483    
   1194100   289.93135      686.19871      227.67628      28474.15       30.536336      1.1448528    
   1194200   295.98492      724.10282     -526.93454      28554.53       30.565043      1.1416301    
   1194300   302.08513      700.71471     -1025.5554      28706.803      30.619278      1.1355744    
   1194400   291.73337      801.35665      1431.724       28564.774      30.568697      1.1412207    
   1194500   299.01902      740.05199     -443.70203      28542.247      30.56066       1.1421214    
   1194600   302.44885      682.94749      1108.4777      28480.146      30.538479      1.1446118    
   1194700   293.11017      685.89261     -1859.1664      28599.713      30.581156      1.1398265    
   1194800   299.87113      620.67314      2138.2711      28567.291      30.569595      1.1411201    
   1194900   305.83873      652.71816      1355.0533      28344.161      30.489797      1.1501032    
   1195000   303.6094       714.45731     -1089.4757      28527.242      30.555303      1.1427221    
   1195100   309.59209      638.4041       753.2496       28467.537      30.533972      1.1451187    
   1195200   298.40086      685.95246     -21.851643      28552.438      30.564296      1.1417137    
   1195300   299.01215      639.22853     -305.47346      28784.472      30.646867      1.1325103    
   1195400   296.55266      723.20352     -1397.4776      28553.911      30.564822      1.1416548    
   1195500   300.71934      793.98675      2794.9245      28304.999      30.475748      1.1516945    
   1195600   307.26363      694.01947      823.1071       28567.752      30.56976       1.1411017    
   1195700   295.62054      730.99281      217.65793      28577.726      30.573317      1.1407034    
   1195800   293.75475      735.59178     -2433.3683      28497.858      30.544808      1.1439004    
   1195900   300.21751      736.84145      1074.6949      28663.808      30.603984      1.1372777    
   1196000   310.6407       713.70973      608.26488      28441.935      30.524816      1.1461495    
   1196100   309.35305      706.98501      56.876795      28210.381      30.441752      1.1555573    
   1196200   307.44397      674.04252     -1145.6155      28404.515      30.511423      1.1476594    
   1196300   291.97295      767.26652      1230.4812      28259.373      30.459365      1.1535539    
   1196400   301.35693      676.19073      272.43179      28581.178      30.574548      1.1405657    
   1196500   306.65394      676.92847      1815.8407      28577.716      30.573313      1.1407038    
   1196600   307.61928      769.8925      -2733.0896      28512.932      30.550193      1.1432956    
   1196700   302.02392      788.25358      1756.921       28405.749      30.511865      1.1476096    
   1196800   302.09986      736.10596     -96.60094       28536.712      30.558684      1.1423429    
   1196900   298.37928      749.27578      739.66839      28409.61       30.513247      1.1474536    
   1197000   296.3175       743.09603     -631.14969      28329.447      30.48452       1.1507005    
   1197100   300.42786      684.80472      769.35379      28327.668      30.483882      1.1507728    
   1197200   292.90367      778.38711     -20.477721      28659.335      30.602392      1.1374552    
   1197300   304.64558      766.86809      1296.0613      28652.769      30.600054      1.1377159    
   1197400   302.79163      793.85829     -47.674079      28383.756      30.503988      1.1484988    
   1197500   302.41805      719.61835      1483.4505      28466.335      30.533542      1.1451671    
   1197600   298.35943      725.73115      51.693382      28505.387      30.547498      1.1435982    
   1197700   299.8466       704.63106     -1248.7135      28386.247      30.504881      1.148398     
   1197800   296.80716      745.27678     -724.49927      28441.665      30.524719      1.1461604    
   1197900   305.22474      758.80052     -801.43899      28443.558      30.525396      1.1460841    
   1198000   310.53083      754.75806     -172.11539      28464.413      30.532855      1.1452444    
   1198100   304.96346      739.01766      1639.1104      28278.591      30.466268      1.1527699    
   1198200   296.72122      765.65092      508.22707      28302.701      30.474924      1.151788     
   1198300   301.63859      699.37722      2105.1373      28255.76       30.458067      1.1537014    
   1198400   299.69157      708.0448       139.13574      28341.862      30.488973      1.1501965    
   1198500   299.97173      682.21446     -977.43469      28604.786      30.582964      1.1396243    
   1198600   298.52234      655.89868      1214.8817      28521.075      30.553101      1.1429692    
   1198700   298.74156      705.37373     -309.11417      28706.151      30.619046      1.1356002    
   1198800   300.55227      755.64564     -1031.8416      28296.889      30.472838      1.1520245    
   1198900   308.0242       682.33185     -1573.4505      28520.398      30.552859      1.1429963    
   1199000   299.96486      654.87017      616.21013      28507.619      30.548295      1.1435087    
   1199100   297.30729      628.31566     -575.13882      28516.116      30.55133       1.143168     
   1199200   299.81828      656.41041     -1764.8438      28709.01       30.620063      1.1354871    
   1199300   296.0701       753.74652      923.67427      28417.705      30.516145      1.1471268    
   1199400   303.00697      719.87359      221.21518      28168.275      30.426599      1.1572846    
   1199500   305.41727      674.6099       375.54421      28028.377      30.376144      1.1630609    
   1199600   302.0021       578.35219      23.890487      28185.334      30.432741      1.1565841    
   1199700   294.0192       658.31261      867.52288      28347.345      30.490939      1.149974     
   1199800   296.07898      715.66153     -562.63825      28486.127      30.540617      1.1443715    
   1199900   306.89676      669.03832      1606.1557      28320.524      30.481319      1.1510631    
   1200000   305.1867       683.93113     -1421.3049      28521.822      30.553368      1.1429393    
   1200100   299.33182      683.02387     -623.08463      28272.866      30.464212      1.1530034    
   1200200   291.77555      654.51547     -933.85049      28546.059      30.56202       1.1419689    
   1200300   289.37303      705.22728     -426.26145      28639.672      30.595391      1.1382362    
   1200400   297.40964      688.91458      676.50291      28721.607      30.62454       1.1349891    
   1200500   297.69527      745.22312     -1034.4552      28487.267      30.541024      1.1443256    
   1200600   299.00718      765.63028     -358.09816      28418.32       30.516365      1.147102     
   1200700   311.02647      673.41239      3317.8169      28211.564      30.442178      1.1555088    
   1200800   294.57283      750.66276     -1466.9077      28691.324      30.613773      1.136187     
   1200900   299.42047      642.36823     -1989.2992      28527.477      30.555387      1.1427127    
   1201000   299.72529      672.55382     -351.82324      28339.597      30.488161      1.1502884    
   1201100   303.55405      697.14302      2373.8773      28144.465      30.418024      1.1582636    
   1201200   301.65711      719.98369     -297.90093      28191.154      30.434835      1.1563453    
   1201300   301.55321      701.8738      -1418.2687      28428.419      30.51998       1.1466944    
   1201400   302.69102      676.45269     -838.80065      28495.565      30.543989      1.1439924    
   1201500   302.8392       687.85232      836.66425      28209.362      30.441386      1.155599     
   1201600   302.89406      733.66117     -1565.1312      28251.169      30.456417      1.1538889    
   1201700   301.55905      723.68343     -1565.8123      28325.744      30.483192      1.150851     
   1201800   301.90776      644.72337     -590.91821      28496.535      30.544336      1.1439535    
   1201900   300.06741      651.72317     -44.488253      28541.885      30.56053       1.1421358    
   1202000   302.27401      717.35654     -448.87372      28448.23       30.527067      1.1458959    
   1202100   305.16233      747.53825      182.36913      28108.513      30.405066      1.1597451    
   1202200   306.84096      690.75587     -676.23125      28041.702      30.380957      1.1625083    
   1202300   296.25757      728.78448     -272.32803      28310.611      30.477762      1.1514662    
   1202400   297.14081      694.90192      1363.6737      28552.251      30.564229      1.1417212    
   1202500   298.92904      706.6244       13.714567      28361.803      30.496122      1.1493878    
   1202600   305.06475      758.88888      2417.8379      28280.44       30.466932      1.1526946    
   1202700   302.19108      780.32573     -40.112144      28569.535      30.570395      1.1410305    
   1202800   305.57613      697.75548     -516.23506      28418.323      30.516366      1.1471018    
   1202900   299.98639      698.63546     -2015.6133      28488.449      30.541446      1.1442782    
   1203000   289.42327      795.93862     -354.6262       28667.228      30.605201      1.137142     
   1203100   308.69679      666.322       -1514.3146      28722.889      30.624996      1.1349384    
   1203200   306.44872      721.7038       442.42668      28620.438      30.588541      1.1390011    
   1203300   300.63205      776.21342      647.0345       28605.705      30.583291      1.1395877    
   1203400   301.34062      706.21435      444.48036      28485.773      30.54049       1.1443857    
   1203500   295.31268      707.49774      2221.4094      28333.143      30.485846      1.1505505    
   1203600   299.60013      674.60006     -465.88768      28564.514      30.568604      1.1412311    
   1203700   297.35979      777.11588     -424.1937       28828.684      30.66255       1.1307734    
   1203800   301.77349      787.9933       101.61529      28485.923      30.540544      1.1443797    
   1203900   306.38743      711.02335      742.11931      28570.949      30.5709        1.140974     
   1204000   297.55849      757.7505      -1367.0725      28784.369      30.646831      1.1325143    
   1204100   294.48533      774.00905      1546.1553      28710.427      30.620566      1.135431     
   1204200   302.75571      707.22795     -169.0614       28589.356      30.577464      1.1402394    
   1204300   306.08412      707.48         289.10038      28733.123      30.628633      1.1345342    
   1204400   308.491        746.34532      928.5799       28610.167      30.584881      1.13941      
   1204500   306.59532      747.93755     -98.001648      28755.169      30.636464      1.1336643    
   1204600   299.71326      719.05294     -707.52181      28645.209      30.597363      1.1380161    
   1204700   298.43806      697.75852     -493.41528      28703.232      30.618008      1.1357157    
   1204800   298.98322      714.46697      638.83138      28759.923      30.638153      1.133477     
   1204900   307.53249      695.87901     -956.60444      28794.795      30.650531      1.1321043    
   1204999   303.50962      817.19053      2138.212       28734.809      30.629232      1.1344676    
Loop time of 15173 on 1 procs for 1000000 steps with 3108 atoms

Performance: 5.694 ns/day, 4.215 hours/ns, 65.907 timesteps/s
99.8% CPU use with 1 MPI tasks x 1 OpenMP threads

MPI task timing breakdown:
Section |  min time  |  avg time  |  max time  |%varavg| %total
---------------------------------------------------------------
Pair    | 12998      | 12998      | 12998      |   0.0 | 85.67
Bond    | 398.38     | 398.38     | 398.38     |   0.0 |  2.63
Neigh   | 1504.4     | 1504.4     | 1504.4     |   0.0 |  9.92
Comm    | 65.322     | 65.322     | 65.322     |   0.0 |  0.43
Output  | 61.773     | 61.773     | 61.773     |   0.0 |  0.41
Modify  | 126.4      | 126.4      | 126.4      |   0.0 |  0.83
Other   |            | 18.72      |            |       |  0.12

Nlocal:           3108 ave        3108 max        3108 min
Histogram: 1 0 0 0 0 0 0 0 0 0
Nghost:          14467 ave       14467 max       14467 min
Histogram: 1 0 0 0 0 0 0 0 0 0
Neighs:    1.19568e+06 ave 1.19568e+06 max 1.19568e+06 min
Histogram: 1 0 0 0 0 0 0 0 0 0

Total # of neighbors = 1195683
Ave neighs/atom = 384.71139
Ave special neighs/atom = 11.407979
Neighbor list builds = 49893
Dangerous builds = 2
unfix			1
#final
write_data		before_cross_linking.data
System init for write_data ...
Generated 78 of 78 mixed pair_coeff terms from geometric mixing rule

#parameter
neighbor		2.0 bin
Total wall time: 4:41:59
