LAMMPS (23 Jun 2022)
# Initialization
units			real
dimension		3
processors		* * *
boundary		p p p
atom_style		full
pair_style		lj/cut 10.0
bond_style		harmonic
angle_style 	harmonic
read_data		crosslinked.data
Reading data file ...
  orthogonal box = (29.81742 26.90292 29.786422) to (60.28958 57.37508 60.258582)
  1 by 1 by 1 MPI processor grid
  reading atoms ...
  2991 atoms
  scanning bonds ...
  4 = max bonds/atom
  scanning angles ...
  6 = max angles/atom
  reading bonds ...
  3046 bonds
  reading angles ...
  5801 angles
Finding 1-2 1-3 1-4 neighbors ...
  special bond factors lj:    0        0        0       
  special bond factors coul:  0        0        0       
     4 = max # of 1-2 neighbors
     7 = max # of 1-3 neighbors
    16 = max # of 1-4 neighbors
    20 = max # of special neighbors
  special bonds CPU = 0.002 seconds
  read_data CPU = 0.016 seconds

#output

thermo			100
thermo_style	custom step temp pe press vol lx density
dump			1 all custom 100 after_cross_linking_latest_correct.lammpstrj id type x y z

#intial minimization
minimize		1.0e-5 1.0e-5 10000 10000
WARNING: Using 'neigh_modify every 1 delay 0 check yes' setting during minimization (src/min.cpp:187)
Generated 153 of 153 mixed pair_coeff terms from geometric mixing rule
Neighbor list info ...
  update every 1 steps, delay 0 steps, check yes
  max neighbors/atom: 2000, page size: 100000
  master list distance cutoff = 12
  ghost atom cutoff = 12
  binsize = 6, bins = 6 6 6
  1 neighbor lists, perpetual/occasional/extra = 1 0 0
  (1) pair lj/cut, perpetual
      attributes: half, newton on
      pair build: half/bin/newton
      stencil: half/bin/3d
      bin: standard
WARNING: Inconsistent image flags (src/domain.cpp:819)
Per MPI rank memory allocation (min/avg/max) = 26.67 | 26.67 | 26.67 Mbytes
   Step          Temp          PotEng         Press          Volume           Lx          Density    
         0   0              250042.76     -584822.43      28294.999      30.472159      1.1108685    
       100   0              1151.156      -15434.34       28294.999      30.472159      1.1108685    
       200   0             -389.66743     -4618.7526      28294.999      30.472159      1.1108685    
       300   0             -645.08327     -3706.5424      28294.999      30.472159      1.1108685    
       400   0             -734.75636     -3503.2336      28294.999      30.472159      1.1108685    
       500   0             -782.47588     -3783.4317      28294.999      30.472159      1.1108685    
       600   0             -822.98457     -3757.1647      28294.999      30.472159      1.1108685    
       700   0             -850.4066      -3447.3628      28294.999      30.472159      1.1108685    
       800   0             -869.22014     -3372.5335      28294.999      30.472159      1.1108685    
       900   0             -880.81407     -3515.0049      28294.999      30.472159      1.1108685    
      1000   0             -889.44949     -3687.7944      28294.999      30.472159      1.1108685    
      1100   0             -894.83506     -3992.0523      28294.999      30.472159      1.1108685    
      1200   0             -902.80575     -3967.1663      28294.999      30.472159      1.1108685    
      1300   0             -908.11555     -3918.4227      28294.999      30.472159      1.1108685    
      1400   0             -911.0584      -3902.3411      28294.999      30.472159      1.1108685    
      1500   0             -913.94378     -3768.1729      28294.999      30.472159      1.1108685    
      1600   0             -916.13062     -3721.9529      28294.999      30.472159      1.1108685    
      1606   0             -916.23314     -3702.9971      28294.999      30.472159      1.1108685    
Loop time of 38.1017 on 1 procs for 1606 steps with 2991 atoms

99.5% CPU use with 1 MPI tasks x no OpenMP threads

Minimization stats:
  Stopping criterion = energy tolerance
  Energy initial, next-to-last, final = 
      250042.760282082  -916.224061603084  -916.233136937071
  Force two-norm initial, final = 29678.718 4.3846495
  Force max component initial, final = 4041.9566 1.2245886
  Final line search alpha, max atom move = 0.023855447 0.029213109
  Iterations, force evaluations = 1606 3132

MPI task timing breakdown:
Section |  min time  |  avg time  |  max time  |%varavg| %total
---------------------------------------------------------------
Pair    | 36.139     | 36.139     | 36.139     |   0.0 | 94.85
Bond    | 0.66013    | 0.66013    | 0.66013    |   0.0 |  1.73
Neigh   | 0.98898    | 0.98898    | 0.98898    |   0.0 |  2.60
Comm    | 0.12698    | 0.12698    | 0.12698    |   0.0 |  0.33
Output  | 0.025097   | 0.025097   | 0.025097   |   0.0 |  0.07
Modify  | 0          | 0          | 0          |   0.0 |  0.00
Other   |            | 0.1617     |            |       |  0.42

Nlocal:           2991 ave        2991 max        2991 min
Histogram: 1 0 0 0 0 0 0 0 0 0
Nghost:          13945 ave       13945 max       13945 min
Histogram: 1 0 0 0 0 0 0 0 0 0
Neighs:    1.12619e+06 ave 1.12619e+06 max 1.12619e+06 min
Histogram: 1 0 0 0 0 0 0 0 0 0

Total # of neighbors = 1126193
Ave neighs/atom = 376.52725
Ave special neighs/atom = 12.138415
Neighbor list builds = 43
Dangerous builds = 0

timestep 1
# nvt for 500 ps
fix			1 all nvt temp 300 300 100
run			500000
Generated 153 of 153 mixed pair_coeff terms from geometric mixing rule
WARNING: Inconsistent image flags (src/domain.cpp:819)
Per MPI rank memory allocation (min/avg/max) = 24.42 | 24.42 | 24.42 Mbytes
   Step          Temp          PotEng         Press          Volume           Lx          Density    
      1606   0             -916.23314     -3702.9971      28294.999      30.472159      1.1108685    
      1700   0.10754909    -917.05049     -3684.2539      28294.999      30.472159      1.1108685    
      1800   0.17230846    -917.16626     -3673.7755      28294.999      30.472159      1.1108685    
      1900   0.24485962    -917.04525     -3645.1529      28294.999      30.472159      1.1108685    
      2000   0.37389125    -916.97622     -3674.2902      28294.999      30.472159      1.1108685    
      2100   0.61357913    -917.05571     -3737.4372      28294.999      30.472159      1.1108685    
      2200   0.69767419    -914.84272     -3683.6846      28294.999      30.472159      1.1108685    
      2300   1.0262454     -913.98262     -3665.7149      28294.999      30.472159      1.1108685    
      2400   1.5368449     -912.57243     -3622.2327      28294.999      30.472159      1.1108685    
      2500   2.1752456     -909.43704     -3597.8566      28294.999      30.472159      1.1108685    
      2600   2.8049027     -902.90044     -3482.6148      28294.999      30.472159      1.1108685    
      2700   3.9706902     -896.68023     -3621.4267      28294.999      30.472159      1.1108685    
      2800   5.360578      -885.50029     -3525.7692      28294.999      30.472159      1.1108685    
      2900   7.9505833     -875.02581     -3774.2815      28294.999      30.472159      1.1108685    
      3000   10.853867     -852.52241     -3607.458       28294.999      30.472159      1.1108685    
      3100   15.752167     -826.9996      -3261.7797      28294.999      30.472159      1.1108685    
      3200   22.139438     -784.42038     -3260.1419      28294.999      30.472159      1.1108685    
      3300   31.766821     -728.07697     -2848.888       28294.999      30.472159      1.1108685    
      3400   45.141148     -648.28168     -2223.653       28294.999      30.472159      1.1108685    
      3500   66.390885     -551.50268     -1512.9705      28294.999      30.472159      1.1108685    
      3600   94.580952     -396.2059       105.96811      28294.999      30.472159      1.1108685    
      3700   131.97719     -176.54545      957.08192      28294.999      30.472159      1.1108685    
      3800   172.59512      149.52586      1601.9936      28294.999      30.472159      1.1108685    
      3900   236.42598      405.51411      2911.2402      28294.999      30.472159      1.1108685    
      4000   289.01166      776.78616      3482.8083      28294.999      30.472159      1.1108685    
      4100   321.75168      1138.792       6532.0564      28294.999      30.472159      1.1108685    
      4200   319.93633      1350.7051      4066.7924      28294.999      30.472159      1.1108685    
      4300   303.10822      1325.6972      2386.1764      28294.999      30.472159      1.1108685    
      4400   291.76533      1274.7132      4896.7359      28294.999      30.472159      1.1108685    
      4500   285.82259      1372.7983      5438.4914      28294.999      30.472159      1.1108685    
      4600   313.87672      1334.8218      4140.4127      28294.999      30.472159      1.1108685    
      4700   311.89422      1387.904       4895.1268      28294.999      30.472159      1.1108685    
      4800   293.29311      1431.0007      3748.8741      28294.999      30.472159      1.1108685    
      4900   296.37611      1352.2069      5579.9315      28294.999      30.472159      1.1108685    
      5000   294.91189      1416.9149      5164.9218      28294.999      30.472159      1.1108685    
      5100   306.77061      1436.7383      2247.0149      28294.999      30.472159      1.1108685    
      5200   307.93043      1474.9884      3912.2067      28294.999      30.472159      1.1108685    
      5300   298.94668      1526.6468      4220.896       28294.999      30.472159      1.1108685    
      5400   299.70235      1492.3257      2301.754       28294.999      30.472159      1.1108685    
      5500   299.10409      1454.7449      2657.1155      28294.999      30.472159      1.1108685    
      5600   288.4496       1498.943       2500.2943      28294.999      30.472159      1.1108685    
      5700   294.74082      1424.824       2713.0424      28294.999      30.472159      1.1108685    
      5800   295.93734      1412.8725      2070.2438      28294.999      30.472159      1.1108685    
      5900   296.91339      1417.8137      936.25768      28294.999      30.472159      1.1108685    
      6000   298.53255      1429.1343     -668.59029      28294.999      30.472159      1.1108685    
      6100   296.68574      1527.9879      610.46346      28294.999      30.472159      1.1108685    
      6200   302.55106      1561.7754      2451.6514      28294.999      30.472159      1.1108685    
      6300   300.45107      1585.8914     -711.84454      28294.999      30.472159      1.1108685    
      6400   296.91436      1518.7575     -416.05406      28294.999      30.472159      1.1108685    
      6500   291.65154      1484.3153      1456.7109      28294.999      30.472159      1.1108685    
      6600   298.35846      1442.3146      872.10426      28294.999      30.472159      1.1108685    
      6700   292.03865      1583.2902      3189.3171      28294.999      30.472159      1.1108685    
      6800   312.10893      1531.4241     -1255.3117      28294.999      30.472159      1.1108685    
      6900   305.12597      1606.9493     -1089.2383      28294.999      30.472159      1.1108685    
      7000   304.438        1484.3503      218.10935      28294.999      30.472159      1.1108685    
      7100   294.16637      1464.0413      1119.781       28294.999      30.472159      1.1108685    
      7200   296.61221      1421.6871     -624.41334      28294.999      30.472159      1.1108685    
      7300   298.00793      1481.8492     -1136.5389      28294.999      30.472159      1.1108685    
      7400   302.55034      1539.0721     -760.52573      28294.999      30.472159      1.1108685    
      7500   302.52667      1574.4288      1156.3754      28294.999      30.472159      1.1108685    
      7600   302.42055      1506.5586      781.19119      28294.999      30.472159      1.1108685    
      7700   297.47149      1466.4934      540.65593      28294.999      30.472159      1.1108685    
      7800   293.25501      1500.1499     -15.838883      28294.999      30.472159      1.1108685    
      7900   305.71477      1477.4599      2112.7055      28294.999      30.472159      1.1108685    
      8000   308.81471      1501.2558     -967.00634      28294.999      30.472159      1.1108685    
      8100   302.63127      1506.9646      107.9034       28294.999      30.472159      1.1108685    
      8200   289.96232      1521.284       609.48583      28294.999      30.472159      1.1108685    
      8300   292.40676      1459.3166      947.82517      28294.999      30.472159      1.1108685    
      8400   301.37218      1465.2833     -112.18486      28294.999      30.472159      1.1108685    
      8500   301.39138      1572.6689     -76.14634       28294.999      30.472159      1.1108685    
      8600   308.1787       1543.2584      1371.8526      28294.999      30.472159      1.1108685    
      8700   306.67854      1481.9594      1013.0675      28294.999      30.472159      1.1108685    
      8800   298.90447      1403.7766     -916.67211      28294.999      30.472159      1.1108685    
      8900   291.37496      1430.6746      30.908916      28294.999      30.472159      1.1108685    
      9000   300.80566      1446.4911      543.73685      28294.999      30.472159      1.1108685    
      9100   309.12584      1501.1617      840.3403       28294.999      30.472159      1.1108685    
      9200   309.44959      1514.2861     -1275.8903      28294.999      30.472159      1.1108685    
      9300   301.16231      1478.5174     -1852.7339      28294.999      30.472159      1.1108685    
      9400   284.84899      1486.3464      322.793        28294.999      30.472159      1.1108685    
      9500   292.72814      1403.1319     -1423.3345      28294.999      30.472159      1.1108685    
      9600   299.24156      1466.977      -899.93725      28294.999      30.472159      1.1108685    
      9700   306.97728      1531.0029     -2581.7928      28294.999      30.472159      1.1108685    
      9800   306.7134       1550.9942     -1012.8471      28294.999      30.472159      1.1108685    
      9900   297.20873      1530.3057     -319.60349      28294.999      30.472159      1.1108685    
     10000   291.07666      1482.0931     -2238.8471      28294.999      30.472159      1.1108685    
     10100   295.61723      1426.0551     -1099.0844      28294.999      30.472159      1.1108685    
     10200   299.98112      1469.1636     -1226.484       28294.999      30.472159      1.1108685    
     10300   304.59404      1524.6929     -627.24549      28294.999      30.472159      1.1108685    
     10400   304.26456      1550.3521     -2794.3228      28294.999      30.472159      1.1108685    
     10500   299.65255      1513.3408     -4221.5109      28294.999      30.472159      1.1108685    
     10600   296.95126      1453.023      -2758.2685      28294.999      30.472159      1.1108685    
     10700   296.41404      1448.6886     -2392.3102      28294.999      30.472159      1.1108685    
     10800   297.83629      1498.2159     -3157.9426      28294.999      30.472159      1.1108685    
     10900   301.08474      1557.4135     -1876.3532      28294.999      30.472159      1.1108685    
     11000   308.48066      1535.0336      1216.4632      28294.999      30.472159      1.1108685    
     11100   307.90176      1520.0055     -1044.4529      28294.999      30.472159      1.1108685    
     11200   296.84265      1538.1781     -1826.3102      28294.999      30.472159      1.1108685    
     11300   298.42496      1469.4833     -1507.1073      28294.999      30.472159      1.1108685    
     11400   297.72482      1503.4738     -391.34757      28294.999      30.472159      1.1108685    
     11500   301.85901      1531.9572     -1126.9398      28294.999      30.472159      1.1108685    
     11600   303.36602      1543.3763     -2349.0002      28294.999      30.472159      1.1108685    
     11700   304.44402      1516.5906     -1669.9924      28294.999      30.472159      1.1108685    
     11800   303.18911      1486.8738     -457.61359      28294.999      30.472159      1.1108685    
     11900   293.64649      1520.3386     -1524.0894      28294.999      30.472159      1.1108685    
     12000   301.37883      1464.0717     -1072.5917      28294.999      30.472159      1.1108685    
     12100   303.23081      1507.1559     -2204.6537      28294.999      30.472159      1.1108685    
     12200   299.25021      1590.8326     -1390.9868      28294.999      30.472159      1.1108685    
     12300   309.77948      1498.6891     -3073.937       28294.999      30.472159      1.1108685    
     12400   301.19343      1497.617      -6.6141856      28294.999      30.472159      1.1108685    
     12500   295.92658      1465.3496     -1828.6024      28294.999      30.472159      1.1108685    
     12600   298.46149      1459.4934     -311.46656      28294.999      30.472159      1.1108685    
     12700   303.27773      1496.7537     -156.27464      28294.999      30.472159      1.1108685    
     12800   304.71698      1530.0597     -1187.9653      28294.999      30.472159      1.1108685    
     12900   300.00608      1529.4775     -2091.7269      28294.999      30.472159      1.1108685    
     13000   294.85843      1485.3536     -760.3136       28294.999      30.472159      1.1108685    
     13100   291.93245      1484.6711     -964.77894      28294.999      30.472159      1.1108685    
     13200   298.75754      1496.5746     -638.24282      28294.999      30.472159      1.1108685    
     13300   305.00595      1517.1291     -969.23029      28294.999      30.472159      1.1108685    
     13400   305.34557      1517.333      -1178.4654      28294.999      30.472159      1.1108685    
     13500   300.6657       1492.67       -152.1061       28294.999      30.472159      1.1108685    
     13600   302.30951      1409.64       -1780.766       28294.999      30.472159      1.1108685    
     13700   293.78992      1479.8912     -1004.2301      28294.999      30.472159      1.1108685    
     13800   295.50793      1526.1483     -61.787088      28294.999      30.472159      1.1108685    
     13900   304.54974      1526.4572      483.47202      28294.999      30.472159      1.1108685    
     14000   308.6557       1525.2735     -1922.4313      28294.999      30.472159      1.1108685    
     14100   298.83559      1551.6514     -1576.9257      28294.999      30.472159      1.1108685    
     14200   292.20419      1539.0174     -846.3153       28294.999      30.472159      1.1108685    
     14300   300.19649      1470.8915     -1203.388       28294.999      30.472159      1.1108685    
     14400   296.77774      1543.3005     -1547.9265      28294.999      30.472159      1.1108685    
     14500   294.51386      1610.0313     -2482.9579      28294.999      30.472159      1.1108685    
     14600   301.88493      1555.7142     -1201.7119      28294.999      30.472159      1.1108685    
     14700   294.93658      1584.1779     -2186.2736      28294.999      30.472159      1.1108685    
     14800   292.99666      1526.1912     -675.00017      28294.999      30.472159      1.1108685    
     14900   297.15259      1471.1572      288.01464      28294.999      30.472159      1.1108685    
     15000   295.19694      1541.3813     -128.18477      28294.999      30.472159      1.1108685    
     15100   300.28931      1576.6896     -8.9346118      28294.999      30.472159      1.1108685    
     15200   306.10297      1558.8247     -389.12798      28294.999      30.472159      1.1108685    
     15300   302.72577      1516.8886     -1626.0277      28294.999      30.472159      1.1108685    
     15400   302.25331      1424.5238     -734.82692      28294.999      30.472159      1.1108685    
     15500   292.76689      1454.8461     -2227.1907      28294.999      30.472159      1.1108685    
     15600   294.11469      1487.2599     -1987.7125      28294.999      30.472159      1.1108685    
     15700   308.96979      1463.5267      270.93614      28294.999      30.472159      1.1108685    
     15800   305.78037      1548.677      -873.54397      28294.999      30.472159      1.1108685    
     15900   301.24138      1541.8135     -1436.4588      28294.999      30.472159      1.1108685    
     16000   300.15519      1462.0283     -363.23112      28294.999      30.472159      1.1108685    
     16100   295.16447      1451.0265     -842.87272      28294.999      30.472159      1.1108685    
     16200   298.73783      1445.1332     -1470.0187      28294.999      30.472159      1.1108685    
     16300   305.08855      1465.2638     -1382.3423      28294.999      30.472159      1.1108685    
     16400   302.97867      1528.2038     -474.00068      28294.999      30.472159      1.1108685    
     16500   305.94716      1492.4745     -1098.1524      28294.999      30.472159      1.1108685    
     16600   302.4227       1464.1573     -1888.3399      28294.999      30.472159      1.1108685    
     16700   293.18506      1499.6494     -3807.8812      28294.999      30.472159      1.1108685    
     16800   296.85695      1461.0154     -2592.5975      28294.999      30.472159      1.1108685    
     16900   298.7227       1489.8317     -2357.4337      28294.999      30.472159      1.1108685    
     17000   294.40597      1575.999      -1682.7176      28294.999      30.472159      1.1108685    
     17100   304.55028      1488.8902     -3195.7638      28294.999      30.472159      1.1108685    
     17200   306.58613      1427.2536     -3374.3923      28294.999      30.472159      1.1108685    
     17300   299.74146      1445.6888     -3617.3189      28294.999      30.472159      1.1108685    
     17400   301.66237      1428.0972     -1077.7836      28294.999      30.472159      1.1108685    
     17500   296.7224       1496.0471     -198.37526      28294.999      30.472159      1.1108685    
     17600   300.56721      1485.9646     -3114.4884      28294.999      30.472159      1.1108685    
     17700   295.60906      1538.7475     -2565.8722      28294.999      30.472159      1.1108685    
     17800   303.40075      1458.2381     -2278.4787      28294.999      30.472159      1.1108685    
     17900   305.45367      1456.9235     -1922.9963      28294.999      30.472159      1.1108685    
     18000   300.41526      1514.0793     -3208.5194      28294.999      30.472159      1.1108685    
     18100   301.37004      1488.8858     -1099.8888      28294.999      30.472159      1.1108685    
     18200   295.53132      1520.744      -940.39708      28294.999      30.472159      1.1108685    
     18300   295.54766      1520.5156     -1032.2465      28294.999      30.472159      1.1108685    
     18400   302.19335      1494.5875     -823.42138      28294.999      30.472159      1.1108685    
     18500   303.97149      1491.6957     -3592.8983      28294.999      30.472159      1.1108685    
     18600   295.16254      1542.2089     -3326.1041      28294.999      30.472159      1.1108685    
     18700   299.43054      1485.4811     -203.58513      28294.999      30.472159      1.1108685    
     18800   298.77343      1496.7048     -1168.0286      28294.999      30.472159      1.1108685    
     18900   305.75195      1453.6733     -1182.7005      28294.999      30.472159      1.1108685    
     19000   301.03049      1511.7648     -2829.2706      28294.999      30.472159      1.1108685    
     19100   304.62725      1481.3796     -3192.1422      28294.999      30.472159      1.1108685    
     19200   305.38344      1455.5967     -1221.1234      28294.999      30.472159      1.1108685    
     19300   297.86019      1487.2022     -241.09716      28294.999      30.472159      1.1108685    
     19400   300.02309      1474.3595     -2363.4178      28294.999      30.472159      1.1108685    
     19500   301.83657      1488.7321     -2274.3578      28294.999      30.472159      1.1108685    
     19600   303.34907      1491.2594     -689.57121      28294.999      30.472159      1.1108685    
     19700   300.95026      1508.7177     -2373.5014      28294.999      30.472159      1.1108685    
     19800   295.51705      1531.766      -2438.1689      28294.999      30.472159      1.1108685    
     19900   290.46925      1570.5774     -225.0649       28294.999      30.472159      1.1108685    
     20000   299.9682       1500.8878     -1789.6456      28294.999      30.472159      1.1108685    
     20100   297.18602      1517.5472     -3460.0516      28294.999      30.472159      1.1108685    
     20200   300.48789      1468.7119     -1689.5388      28294.999      30.472159      1.1108685    
     20300   300.59111      1458.9939     -2295.6637      28294.999      30.472159      1.1108685    
     20400   294.63243      1515.2372     -1495.651       28294.999      30.472159      1.1108685    
     20500   298.41977      1483.2752     -1840.1741      28294.999      30.472159      1.1108685    
     20600   303.81606      1447.5753     -2654.1186      28294.999      30.472159      1.1108685    
     20700   302.59365      1470.2393     -1222.3198      28294.999      30.472159      1.1108685    
     20800   299.51073      1508.0481     -3204.2903      28294.999      30.472159      1.1108685    
     20900   298.42818      1504.0019     -4542.6334      28294.999      30.472159      1.1108685    
     21000   297.2056       1505.2251     -3689.7977      28294.999      30.472159      1.1108685    
     21100   299.92405      1471.8923     -3937.0204      28294.999      30.472159      1.1108685    
     21200   302.31311      1445.5527     -3061.4795      28294.999      30.472159      1.1108685    
     21300   298.37494      1484.541      -1588.3731      28294.999      30.472159      1.1108685    
     21400   302.19465      1481.3264     -2647.0257      28294.999      30.472159      1.1108685    
     21500   306.78847      1447.696      -3275.1945      28294.999      30.472159      1.1108685    
     21600   301.16256      1489.6891     -3353.4049      28294.999      30.472159      1.1108685    
     21700   301.84252      1451.5801     -2133.7977      28294.999      30.472159      1.1108685    
     21800   291.26129      1508.4469     -1480.3087      28294.999      30.472159      1.1108685    
     21900   295.17992      1482.7929     -58.573011      28294.999      30.472159      1.1108685    
     22000   297.24732      1506.7435     -512.70387      28294.999      30.472159      1.1108685    
     22100   306.08724      1472.2752     -4364.6546      28294.999      30.472159      1.1108685    
     22200   304.95912      1470.1678     -2673.2113      28294.999      30.472159      1.1108685    
     22300   298.11194      1466.5816     -904.47387      28294.999      30.472159      1.1108685    
     22400   299.48507      1425.9633     -1564.1107      28294.999      30.472159      1.1108685    
     22500   299.66246      1457.0104     -2208.6973      28294.999      30.472159      1.1108685    
     22600   294.40086      1562.8791     -1819.5277      28294.999      30.472159      1.1108685    
     22700   297.86543      1567.3498     -4392.3125      28294.999      30.472159      1.1108685    
     22800   299.79973      1522.4164     -1794.2223      28294.999      30.472159      1.1108685    
     22900   301.98395      1458.2154     -3254.8209      28294.999      30.472159      1.1108685    
     23000   296.70896      1471.3763     -3093.1591      28294.999      30.472159      1.1108685    
     23100   293.62681      1502.3758     -3651.7723      28294.999      30.472159      1.1108685    
     23200   305.79795      1442.003      -3503.4482      28294.999      30.472159      1.1108685    
     23300   298.68211      1530.6733     -754.12052      28294.999      30.472159      1.1108685    
     23400   299.80596      1504.5988     -1942.8563      28294.999      30.472159      1.1108685    
     23500   299.28395      1453.2384     -3705.3396      28294.999      30.472159      1.1108685    
     23600   298.03912      1417.017      -1781.235       28294.999      30.472159      1.1108685    
     23700   297.89285      1434.823      -1898.2499      28294.999      30.472159      1.1108685    
     23800   300.10894      1479.5488     -1956.7356      28294.999      30.472159      1.1108685    
     23900   304.54635      1491.5996     -2473.3997      28294.999      30.472159      1.1108685    
     24000   302.82331      1497.2052     -1274.4879      28294.999      30.472159      1.1108685    
     24100   305.1722       1420.4736     -3099.84        28294.999      30.472159      1.1108685    
     24200   297.29466      1448.0713     -4519.8026      28294.999      30.472159      1.1108685    
     24300   295.77765      1456.9025     -3642.645       28294.999      30.472159      1.1108685    
     24400   294.56724      1504.0883     -3085.3061      28294.999      30.472159      1.1108685    
     24500   306.81354      1455.3265     -2419.9741      28294.999      30.472159      1.1108685    
     24600   309.37607      1449.922      -1503.5739      28294.999      30.472159      1.1108685    
     24700   304.42685      1443.2353     -3717.894       28294.999      30.472159      1.1108685    
     24800   295.30645      1452.2233     -3071.8868      28294.999      30.472159      1.1108685    
     24900   288.89713      1491.9924     -1448.9319      28294.999      30.472159      1.1108685    
     25000   299.88842      1455.1784     -4562.4134      28294.999      30.472159      1.1108685    
     25100   301.54782      1512.946       244.44118      28294.999      30.472159      1.1108685    
     25200   311.82246      1430.8476     -1431.6598      28294.999      30.472159      1.1108685    
     25300   297.56937      1502.4041     -3828.3638      28294.999      30.472159      1.1108685    
     25400   299.01941      1437.5028     -2160.291       28294.999      30.472159      1.1108685    
     25500   296.39632      1442.178      -2554.3155      28294.999      30.472159      1.1108685    
     25600   301.90666      1435.6545     -3011.1693      28294.999      30.472159      1.1108685    
     25700   307.0344       1446.6771     -3712.8531      28294.999      30.472159      1.1108685    
     25800   298.10535      1539.3617     -3621.834       28294.999      30.472159      1.1108685    
     25900   301.30985      1484.7626     -2552.4542      28294.999      30.472159      1.1108685    
     26000   298.92928      1463.9086     -1406.1594      28294.999      30.472159      1.1108685    
     26100   299.17847      1442.1929     -1052.0316      28294.999      30.472159      1.1108685    
     26200   300.69962      1445.1995     -1078.9326      28294.999      30.472159      1.1108685    
     26300   294.44303      1513.6768     -2467.7817      28294.999      30.472159      1.1108685    
     26400   302.19983      1455.8611     -1773.9214      28294.999      30.472159      1.1108685    
     26500   304.89882      1442.0643     -2617.7298      28294.999      30.472159      1.1108685    
     26600   304.45352      1433.2649     -2630.515       28294.999      30.472159      1.1108685    
     26700   298.36169      1457.9001     -2648.5463      28294.999      30.472159      1.1108685    
     26800   298.3357       1450.5756     -1838.0763      28294.999      30.472159      1.1108685    
     26900   302.23248      1418.6811     -2776.373       28294.999      30.472159      1.1108685    
     27000   302.18131      1412.9841     -3433.0441      28294.999      30.472159      1.1108685    
     27100   298.09941      1471.2758     -1837.9232      28294.999      30.472159      1.1108685    
     27200   300.45012      1485.8214     -878.27233      28294.999      30.472159      1.1108685    
     27300   299.08117      1517.5398     -1484.7829      28294.999      30.472159      1.1108685    
     27400   297.25532      1528.6999     -2013.3982      28294.999      30.472159      1.1108685    
     27500   305.98931      1424.0449     -3371.505       28294.999      30.472159      1.1108685    
     27600   297.66647      1455.1286     -1170.6487      28294.999      30.472159      1.1108685    
     27700   295.26646      1459.6612     -2644.1658      28294.999      30.472159      1.1108685    
     27800   299.21096      1433.4312     -2539.0718      28294.999      30.472159      1.1108685    
     27900   301.96738      1430.1577     -1379.8626      28294.999      30.472159      1.1108685    
     28000   299.98045      1465.7522     -1213.4866      28294.999      30.472159      1.1108685    
     28100   301.19896      1476.7748     -2186.8024      28294.999      30.472159      1.1108685    
     28200   300.3455       1491.7784     -2077.0098      28294.999      30.472159      1.1108685    
     28300   300.11144      1457.9893     -617.0011       28294.999      30.472159      1.1108685    
     28400   304.76061      1383.8045     -904.84353      28294.999      30.472159      1.1108685    
     28500   300.92356      1412.2218     -1560.1063      28294.999      30.472159      1.1108685    
     28600   299.31754      1470.0058     -658.1057       28294.999      30.472159      1.1108685    
     28700   301.90194      1499.5637     -3.9838151      28294.999      30.472159      1.1108685    
     28800   305.32131      1466.2951     -2254.3558      28294.999      30.472159      1.1108685    
     28900   302.46481      1430.6115     -2527.4105      28294.999      30.472159      1.1108685    
     29000   294.85177      1445.6323     -2208.9266      28294.999      30.472159      1.1108685    
     29100   298.05018      1421.9124     -1293.5988      28294.999      30.472159      1.1108685    
     29200   303.45469      1426.8566     -1121.1438      28294.999      30.472159      1.1108685    
     29300   299.5195       1494.225      -1513.1247      28294.999      30.472159      1.1108685    
     29400   303.32977      1453.676       510.67971      28294.999      30.472159      1.1108685    
     29500   304.97951      1415.4202     -537.92531      28294.999      30.472159      1.1108685    
     29600   295.21984      1461.4967     -741.44348      28294.999      30.472159      1.1108685    
     29700   303.74709      1371.4743     -611.11808      28294.999      30.472159      1.1108685    
     29800   301.88109      1434.6419     -1748.1636      28294.999      30.472159      1.1108685    
     29900   305.25229      1466.7743     -3757.4525      28294.999      30.472159      1.1108685    
     30000   302.85652      1498.9294     -1546.9644      28294.999      30.472159      1.1108685    
     30100   302.18233      1450.8338     -2738.8561      28294.999      30.472159      1.1108685    
     30200   299.80258      1409.5834     -3787.5869      28294.999      30.472159      1.1108685    
     30300   296.60024      1424.8127     -2955.4856      28294.999      30.472159      1.1108685    
     30400   302.82446      1406.914      -1816.0116      28294.999      30.472159      1.1108685    
     30500   298.62061      1506.7848     -4361.0367      28294.999      30.472159      1.1108685    
     30600   307.05445      1448.796      -2966.9426      28294.999      30.472159      1.1108685    
     30700   300.43578      1466.2744     -945.10216      28294.999      30.472159      1.1108685    
     30800   296.08734      1456.6202     -1829.5676      28294.999      30.472159      1.1108685    
     30900   297.96431      1424.635      -2823.7961      28294.999      30.472159      1.1108685    
     31000   298.07423      1452.6372     -3271.1662      28294.999      30.472159      1.1108685    
     31100   300.99835      1482.4622     -1744.5868      28294.999      30.472159      1.1108685    
     31200   301.09175      1514.6854     -2711.5614      28294.999      30.472159      1.1108685    
     31300   300.46615      1496.3206     -2114.4665      28294.999      30.472159      1.1108685    
     31400   301.608        1441.3807     -3344.7078      28294.999      30.472159      1.1108685    
     31500   297.1889       1452.947      -3288.8575      28294.999      30.472159      1.1108685    
     31600   297.28327      1467.1365     -2426.6931      28294.999      30.472159      1.1108685    
     31700   297.44306      1494.9487     -1348.1742      28294.999      30.472159      1.1108685    
     31800   298.59354      1513.2224     -2938.5227      28294.999      30.472159      1.1108685    
     31900   299.00131      1510.7816     -899.59437      28294.999      30.472159      1.1108685    
     32000   301.56778      1440.55       -974.35228      28294.999      30.472159      1.1108685    
     32100   302.3595       1393.4196     -3028.708       28294.999      30.472159      1.1108685    
     32200   299.52836      1412.0239     -1570.0215      28294.999      30.472159      1.1108685    
     32300   292.41605      1490.5483     -1162.1553      28294.999      30.472159      1.1108685    
     32400   301.7662       1451.0004     -1352.8371      28294.999      30.472159      1.1108685    
     32500   298.97067      1502.4629     -56.194077      28294.999      30.472159      1.1108685    
     32600   297.32884      1488.9627     -2587.6333      28294.999      30.472159      1.1108685    
     32700   295.92473      1459.7731     -2402.4075      28294.999      30.472159      1.1108685    
     32800   299.81567      1406.0794     -3331.9172      28294.999      30.472159      1.1108685    
     32900   299.79411      1413.6557     -2807.9458      28294.999      30.472159      1.1108685    
     33000   297.56719      1470.821      -642.29379      28294.999      30.472159      1.1108685    
     33100   300.96706      1474.5668     -1419.5697      28294.999      30.472159      1.1108685    
     33200   301.69711      1463.3866     -2374.3366      28294.999      30.472159      1.1108685    
     33300   294.75509      1444.1097     -2526.0669      28294.999      30.472159      1.1108685    
     33400   301.97094      1345.7444     -3526.8094      28294.999      30.472159      1.1108685    
     33500   299.70722      1423.6834     -3414.4293      28294.999      30.472159      1.1108685    
     33600   300.25205      1492.4827     -2027.961       28294.999      30.472159      1.1108685    
     33700   305.31024      1446.5161     -419.39061      28294.999      30.472159      1.1108685    
     33800   301.97941      1442.2756     -2237.3151      28294.999      30.472159      1.1108685    
     33900   298.96758      1420.5537      516.84564      28294.999      30.472159      1.1108685    
     34000   293.68698      1433.7469     -298.48175      28294.999      30.472159      1.1108685    
     34100   295.3034       1485.5845     -1928.2524      28294.999      30.472159      1.1108685    
     34200   307.69319      1460.5737     -719.95694      28294.999      30.472159      1.1108685    
     34300   304.22078      1473.0306     -1669.6481      28294.999      30.472159      1.1108685    
     34400   300.60815      1438.0547     -2089.7234      28294.999      30.472159      1.1108685    
     34500   299.7192       1385.2821     -1942.155       28294.999      30.472159      1.1108685    
     34600   304.10026      1364.6475     -2592.6159      28294.999      30.472159      1.1108685    
     34700   299.52909      1439.9213     -3038.0893      28294.999      30.472159      1.1108685    
     34800   305.37609      1419.9725     -3187.8776      28294.999      30.472159      1.1108685    
     34900   302.00406      1467.7263     -2400.0237      28294.999      30.472159      1.1108685    
     35000   302.27842      1451.7848     -4186.8003      28294.999      30.472159      1.1108685    
     35100   295.7633       1497.1057     -3975.662       28294.999      30.472159      1.1108685    
     35200   305.56871      1408.1511     -2952.9328      28294.999      30.472159      1.1108685    
     35300   299.74035      1461.7816     -813.50556      28294.999      30.472159      1.1108685    
     35400   299.72576      1455.0887     -811.14521      28294.999      30.472159      1.1108685    
     35500   299.84535      1425.7056     -643.26658      28294.999      30.472159      1.1108685    
     35600   293.25498      1426.3332     -982.39388      28294.999      30.472159      1.1108685    
     35700   292.80114      1434.1259     -1115.8692      28294.999      30.472159      1.1108685    
     35800   297.54336      1485.6874     -269.894        28294.999      30.472159      1.1108685    
     35900   302.37768      1477.0239      233.27148      28294.999      30.472159      1.1108685    
     36000   307.01224      1431.2985     -1857.0237      28294.999      30.472159      1.1108685    
     36100   300.71259      1430.0084     -2885.8939      28294.999      30.472159      1.1108685    
     36200   294.3584       1395.6627     -893.06083      28294.999      30.472159      1.1108685    
     36300   288.70755      1444.9013     -3112.8828      28294.999      30.472159      1.1108685    
     36400   302.50185      1357.7125     -1511.6389      28294.999      30.472159      1.1108685    
     36500   299.04832      1433.8447     -1633.8748      28294.999      30.472159      1.1108685    
     36600   298.89017      1494.8065     -3217.595       28294.999      30.472159      1.1108685    
     36700   300.20511      1520.193      -2437.6019      28294.999      30.472159      1.1108685    
     36800   302.03299      1472.8746     -380.95594      28294.999      30.472159      1.1108685    
     36900   291.78843      1448.9995     -3911.3397      28294.999      30.472159      1.1108685    
     37000   293.16101      1434.8785     -2990.9144      28294.999      30.472159      1.1108685    
     37100   298.26117      1450.0165     -2326.6452      28294.999      30.472159      1.1108685    
     37200   307.59517      1413.1736     -3100.5587      28294.999      30.472159      1.1108685    
     37300   301.36067      1468.1278     -1429.1253      28294.999      30.472159      1.1108685    
     37400   304.6562       1394.7969     -1746.2231      28294.999      30.472159      1.1108685    
     37500   287.9966       1430.1616     -1194.5333      28294.999      30.472159      1.1108685    
     37600   294.95617      1399.8234     -2496.2195      28294.999      30.472159      1.1108685    
     37700   305.33699      1387.7377     -2577.4992      28294.999      30.472159      1.1108685    
     37800   301.73772      1445.3123     -2211.5367      28294.999      30.472159      1.1108685    
     37900   303.68237      1417.4125     -1984.6574      28294.999      30.472159      1.1108685    
     38000   301.31709      1392.1236     -3763.782       28294.999      30.472159      1.1108685    
     38100   300.48839      1317.1496     -980.71245      28294.999      30.472159      1.1108685    
     38200   290.16262      1422.6924     -1342.8024      28294.999      30.472159      1.1108685    
     38300   299.289        1442.3871     -1723.7431      28294.999      30.472159      1.1108685    
     38400   299.35849      1461.1705     -2598.9764      28294.999      30.472159      1.1108685    
     38500   304.84551      1437.0906     -462.78158      28294.999      30.472159      1.1108685    
     38600   302.34331      1484.4307     -2670.2503      28294.999      30.472159      1.1108685    
     38700   296.00764      1505.1009     -3572.91        28294.999      30.472159      1.1108685    
     38800   293.91695      1438.3187     -251.67469      28294.999      30.472159      1.1108685    
     38900   293.57241      1442.6641     -3783.3102      28294.999      30.472159      1.1108685    
     39000   302.8466       1438.6667     -3363.5833      28294.999      30.472159      1.1108685    
     39100   303.98431      1471.7905     -3171.286       28294.999      30.472159      1.1108685    
     39200   302.99929      1469.0463     -3653.5064      28294.999      30.472159      1.1108685    
     39300   299.79389      1465.3783     -2732.3392      28294.999      30.472159      1.1108685    
     39400   300.17967      1444.7224     -2432.5617      28294.999      30.472159      1.1108685    
     39500   301.30713      1436.4584     -742.57419      28294.999      30.472159      1.1108685    
     39600   295.84613      1504.0798     -1240.9397      28294.999      30.472159      1.1108685    
     39700   302.81734      1490.563      -872.80395      28294.999      30.472159      1.1108685    
     39800   300.94603      1507.6635     -1521.0855      28294.999      30.472159      1.1108685    
     39900   296.23544      1460.799      -3236.3132      28294.999      30.472159      1.1108685    
     40000   295.07498      1448.7302     -1116.2813      28294.999      30.472159      1.1108685    
     40100   307.85233      1364.6497     -1079.1824      28294.999      30.472159      1.1108685    
     40200   301.61979      1444.619      -3326.3783      28294.999      30.472159      1.1108685    
     40300   302.75594      1442.0653     -2182.7353      28294.999      30.472159      1.1108685    
     40400   299.41109      1470.6913     -3892.5585      28294.999      30.472159      1.1108685    
     40500   296.05764      1474.2107     -3593.2712      28294.999      30.472159      1.1108685    
     40600   294.51056      1413.7575     -2684.0507      28294.999      30.472159      1.1108685    
     40700   293.82409      1406.1903     -1990.6695      28294.999      30.472159      1.1108685    
     40800   303.89038      1427.8574     -2249.098       28294.999      30.472159      1.1108685    
     40900   304.44131      1463.3569     -671.16715      28294.999      30.472159      1.1108685    
     41000   298.61126      1502.23       -3504.9724      28294.999      30.472159      1.1108685    
     41100   300.75483      1437.8098     -4685.1669      28294.999      30.472159      1.1108685    
     41200   292.08812      1431.7126     -1643.6985      28294.999      30.472159      1.1108685    
     41300   293.96106      1410.8846     -4612.2476      28294.999      30.472159      1.1108685    
     41400   299.85139      1447.0638     -551.04741      28294.999      30.472159      1.1108685    
     41500   299.09486      1484.3378     -1867.0016      28294.999      30.472159      1.1108685    
     41600   303.98261      1424.2703     -2530.977       28294.999      30.472159      1.1108685    
     41700   298.01977      1426.2349     -605.99018      28294.999      30.472159      1.1108685    
     41800   294.72717      1425.0524     -2721.2161      28294.999      30.472159      1.1108685    
     41900   296.9117       1456.9266     -3366.8373      28294.999      30.472159      1.1108685    
     42000   308.64976      1442.8773     -1850.2322      28294.999      30.472159      1.1108685    
     42100   300.70714      1502.7819     -2468.0777      28294.999      30.472159      1.1108685    
     42200   297.92212      1460.9962     -2574.1044      28294.999      30.472159      1.1108685    
     42300   294.60939      1459.1348     -2947.9562      28294.999      30.472159      1.1108685    
     42400   293.57732      1487.5662     -1558.8604      28294.999      30.472159      1.1108685    
     42500   295.4761       1496.3501     -766.23833      28294.999      30.472159      1.1108685    
     42600   298.81595      1470.2474     -2220.1362      28294.999      30.472159      1.1108685    
     42700   299.18172      1448.3386     -2029.0978      28294.999      30.472159      1.1108685    
     42800   298.97713      1395.504      -1109.9329      28294.999      30.472159      1.1108685    
     42900   298.41606      1336.1761     -2518.4437      28294.999      30.472159      1.1108685    
     43000   294.98851      1420.48       -745.40834      28294.999      30.472159      1.1108685    
     43100   295.75683      1497.8946     -209.18278      28294.999      30.472159      1.1108685    
     43200   296.75576      1511.4635     -3225.2709      28294.999      30.472159      1.1108685    
     43300   296.57857      1489.3864     -3475.8843      28294.999      30.472159      1.1108685    
     43400   298.17047      1398.2201     -4468.3193      28294.999      30.472159      1.1108685    
     43500   300.03043      1322.9066     -2289.4781      28294.999      30.472159      1.1108685    
     43600   296.39841      1435.6262     -3336.0334      28294.999      30.472159      1.1108685    
     43700   300.67692      1483.3119     -2901.8196      28294.999      30.472159      1.1108685    
     43800   307.02206      1404.2032     -3389.404       28294.999      30.472159      1.1108685    
     43900   304.45681      1357.0584     -1868.6856      28294.999      30.472159      1.1108685    
     44000   297.47148      1393.4465     -2810.2418      28294.999      30.472159      1.1108685    
     44100   298.07261      1444.8955     -4003.3962      28294.999      30.472159      1.1108685    
     44200   300.43044      1519.7364     -4043.8898      28294.999      30.472159      1.1108685    
     44300   305.21623      1468.7354     -4815.7273      28294.999      30.472159      1.1108685    
     44400   296.09432      1495.1626     -4391.8692      28294.999      30.472159      1.1108685    
     44500   294.51525      1472.7171     -3708.7574      28294.999      30.472159      1.1108685    
     44600   293.19101      1461.0529     -4274.9489      28294.999      30.472159      1.1108685    
     44700   299.74923      1452.0604     -4196.2119      28294.999      30.472159      1.1108685    
     44800   298.37535      1542.6503     -3728.1417      28294.999      30.472159      1.1108685    
     44900   304.28153      1498.5648     -4472.9136      28294.999      30.472159      1.1108685    
     45000   300.97557      1461.3195     -1769.319       28294.999      30.472159      1.1108685    
     45100   295.13789      1448.8816     -722.77461      28294.999      30.472159      1.1108685    
     45200   294.61591      1458.1758     -1323.276       28294.999      30.472159      1.1108685    
     45300   303.2681       1406.8041     -2515.4124      28294.999      30.472159      1.1108685    
     45400   301.21159      1429.0161     -1824.2815      28294.999      30.472159      1.1108685    
     45500   302.0608       1419.8444     -2800.7212      28294.999      30.472159      1.1108685    
     45600   295.44491      1483.2728     -1671.0415      28294.999      30.472159      1.1108685    
     45700   304.66175      1459.8282     -974.66354      28294.999      30.472159      1.1108685    
     45800   304.98005      1512.3241     -2014.911       28294.999      30.472159      1.1108685    
     45900   299.35225      1496.4615     -1397.0682      28294.999      30.472159      1.1108685    
     46000   302.77363      1389.3863     -2872.7648      28294.999      30.472159      1.1108685    
     46100   306.31455      1333.8671     -3598.8099      28294.999      30.472159      1.1108685    
     46200   293.02364      1479.0622     -3059.1136      28294.999      30.472159      1.1108685    
     46300   305.70834      1452.9669     -1943.0416      28294.999      30.472159      1.1108685    
     46400   304.35785      1458.4898     -3308.5978      28294.999      30.472159      1.1108685    
     46500   302.79723      1422.384      -1346.5071      28294.999      30.472159      1.1108685    
     46600   298.84069      1444.0587     -4437.2842      28294.999      30.472159      1.1108685    
     46700   303.86452      1385.7741     -2356.524       28294.999      30.472159      1.1108685    
     46800   299.29388      1416.8432     -2344.9876      28294.999      30.472159      1.1108685    
     46900   297.27614      1410.1773     -1762.0434      28294.999      30.472159      1.1108685    
     47000   300.98899      1404.7473     -1369.7654      28294.999      30.472159      1.1108685    
     47100   308.24763      1418.5625     -2453.0166      28294.999      30.472159      1.1108685    
     47200   302.34945      1480.6302     -1063.8794      28294.999      30.472159      1.1108685    
     47300   299.44737      1420.4308     -2500.5014      28294.999      30.472159      1.1108685    
     47400   300.24693      1363.2397     -1109.4358      28294.999      30.472159      1.1108685    
     47500   296.41287      1424.3982     -3934.8661      28294.999      30.472159      1.1108685    
     47600   300.62561      1449.2186     -1432.6813      28294.999      30.472159      1.1108685    
     47700   301.15601      1471.7853     -2016.4586      28294.999      30.472159      1.1108685    
     47800   299.02003      1447.7486     -1556.6263      28294.999      30.472159      1.1108685    
     47900   299.59536      1337.2238     -1973.7074      28294.999      30.472159      1.1108685    
     48000   293.32975      1377.5438     -3222.904       28294.999      30.472159      1.1108685    
     48100   294.8094       1403.413      -3642.9494      28294.999      30.472159      1.1108685    
     48200   305.75391      1353.2661     -3185.1287      28294.999      30.472159      1.1108685    
     48300   299.36809      1448.2848     -1952.7613      28294.999      30.472159      1.1108685    
     48400   302.91796      1441.7014     -3135.7955      28294.999      30.472159      1.1108685    
     48500   303.12459      1450.897      -1858.6666      28294.999      30.472159      1.1108685    
     48600   294.72638      1483.1816     -2357.2323      28294.999      30.472159      1.1108685    
     48700   297.77919      1409.9267     -2146.8219      28294.999      30.472159      1.1108685    
     48800   294.16364      1450.7992     -4219.5234      28294.999      30.472159      1.1108685    
     48900   302.73553      1463.941      -3451.8299      28294.999      30.472159      1.1108685    
     49000   303.5855       1495.1879     -2509.4103      28294.999      30.472159      1.1108685    
     49100   304.70622      1455.7078     -3155.2605      28294.999      30.472159      1.1108685    
     49200   302.78692      1413.4713     -2506.1959      28294.999      30.472159      1.1108685    
     49300   295.91228      1465.8358     -3761.3844      28294.999      30.472159      1.1108685    
     49400   306.31137      1374.7806     -3292.0015      28294.999      30.472159      1.1108685    
     49500   300.44072      1436.6904     -3528.5302      28294.999      30.472159      1.1108685    
     49600   296.07967      1508.5327     -3508.6318      28294.999      30.472159      1.1108685    
     49700   300.91408      1499.5736     -3554.809       28294.999      30.472159      1.1108685    
     49800   301.0457       1470.2144     -3813.1869      28294.999      30.472159      1.1108685    
     49900   298.34052      1411.5801     -5005.6037      28294.999      30.472159      1.1108685    
     50000   294.80711      1418.9782     -3307.0603      28294.999      30.472159      1.1108685    
     50100   303.00947      1393.2028     -970.45924      28294.999      30.472159      1.1108685    
     50200   300.89826      1512.0718     -1613.4934      28294.999      30.472159      1.1108685    
     50300   303.78166      1487.2044     -2489.0184      28294.999      30.472159      1.1108685    
     50400   299.60632      1482.5255     -2353.6976      28294.999      30.472159      1.1108685    
     50500   300.15819      1426.8186     -2388.6901      28294.999      30.472159      1.1108685    
     50600   291.52836      1472.3226     -3113.9863      28294.999      30.472159      1.1108685    
     50700   299.71867      1396.6286     -2780.2602      28294.999      30.472159      1.1108685    
     50800   295.64961      1505.3138     -2365.8199      28294.999      30.472159      1.1108685    
     50900   305.87934      1474.5604     -268.08067      28294.999      30.472159      1.1108685    
     51000   304.58934      1460.4684     -3386.7658      28294.999      30.472159      1.1108685    
     51100   299.99092      1416.926      -2220.6644      28294.999      30.472159      1.1108685    
     51200   301.42009      1394.1478     -3125.2175      28294.999      30.472159      1.1108685    
     51300   298.61948      1445.5371     -1383.8977      28294.999      30.472159      1.1108685    
     51400   303.57111      1431.0188     -2294.6116      28294.999      30.472159      1.1108685    
     51500   299.25822      1508.5392     -2800.162       28294.999      30.472159      1.1108685    
     51600   306.13335      1553.413      -1541.2941      28294.999      30.472159      1.1108685    
     51700   308.42999      1506.1859     -1440.3445      28294.999      30.472159      1.1108685    
     51800   304.09642      1445.9563     -2650.154       28294.999      30.472159      1.1108685    
     51900   298.48228      1447.6528     -5129.3296      28294.999      30.472159      1.1108685    
     52000   303.29286      1391.9982     -4513.8953      28294.999      30.472159      1.1108685    
     52100   297.76107      1461.9551     -2814.7301      28294.999      30.472159      1.1108685    
     52200   297.0105       1531.9768     -2043.5146      28294.999      30.472159      1.1108685    
     52300   302.0117       1531.774      -1242.7541      28294.999      30.472159      1.1108685    
     52400   298.2561       1472.9574     -1036.8289      28294.999      30.472159      1.1108685    
     52500   302.35699      1373.4089     -1542.6034      28294.999      30.472159      1.1108685    
     52600   292.70263      1459.0169     -1727.0072      28294.999      30.472159      1.1108685    
     52700   301.38909      1427.4546     -657.04629      28294.999      30.472159      1.1108685    
     52800   301.06356      1499.869      -2287.3362      28294.999      30.472159      1.1108685    
     52900   300.93072      1516.0609     -1768.0968      28294.999      30.472159      1.1108685    
     53000   291.68649      1475.9956      315.21388      28294.999      30.472159      1.1108685    
     53100   295.06504      1411.278      -2302.7075      28294.999      30.472159      1.1108685    
     53200   300.9347       1403.9592     -3169.0502      28294.999      30.472159      1.1108685    
     53300   299.12554      1491.5259     -2550.7155      28294.999      30.472159      1.1108685    
     53400   297.14286      1527.8592     -3763.5537      28294.999      30.472159      1.1108685    
     53500   297.92093      1500.6757     -1488.7198      28294.999      30.472159      1.1108685    
     53600   301.29806      1389.0468      143.0991       28294.999      30.472159      1.1108685    
     53700   297.52769      1329.2746     -1457.1541      28294.999      30.472159      1.1108685    
     53800   293.66944      1423.2194     -1867.9378      28294.999      30.472159      1.1108685    
     53900   301.20955      1422.6025     -775.58788      28294.999      30.472159      1.1108685    
     54000   303.92884      1444.9378     -2807.9784      28294.999      30.472159      1.1108685    
     54100   307.04761      1420.1937     -2006.2603      28294.999      30.472159      1.1108685    
     54200   297.49456      1420.2446     -2928.0034      28294.999      30.472159      1.1108685    
     54300   294.86747      1385.2585     -3401.7489      28294.999      30.472159      1.1108685    
     54400   293.2398       1448.4363     -2876.9912      28294.999      30.472159      1.1108685    
     54500   298.81228      1447.688      -1662.3616      28294.999      30.472159      1.1108685    
     54600   297.84157      1483.9268     -2619.2235      28294.999      30.472159      1.1108685    
     54700   293.82719      1513.3062     -1298.0518      28294.999      30.472159      1.1108685    
     54800   302.22111      1385.5266     -3701.5205      28294.999      30.472159      1.1108685    
     54900   296.15292      1353.773      -1402.81        28294.999      30.472159      1.1108685    
     55000   297.12966      1369.2563     -2226.1838      28294.999      30.472159      1.1108685    
     55100   300.10744      1431.1704     -2123.2171      28294.999      30.472159      1.1108685    
     55200   296.79989      1487.7934     -1016.4449      28294.999      30.472159      1.1108685    
     55300   304.35186      1423.495      -2714.8809      28294.999      30.472159      1.1108685    
     55400   298.12501      1438.9999     -1202.9885      28294.999      30.472159      1.1108685    
     55500   289.47844      1446.9029     -2262.1301      28294.999      30.472159      1.1108685    
     55600   300.27871      1370.1891     -3561.617       28294.999      30.472159      1.1108685    
     55700   307.43353      1414.2903     -2235.8193      28294.999      30.472159      1.1108685    
     55800   301.98091      1470.0543     -4691.4042      28294.999      30.472159      1.1108685    
     55900   300.57016      1454.1994     -1501.9338      28294.999      30.472159      1.1108685    
     56000   297.13572      1415.9633     -2597.6795      28294.999      30.472159      1.1108685    
     56100   296.75891      1353.5662     -2797.1837      28294.999      30.472159      1.1108685    
     56200   297.21802      1402.6025     -1540.0603      28294.999      30.472159      1.1108685    
     56300   304.75439      1438.112      -2293.0827      28294.999      30.472159      1.1108685    
     56400   304.94564      1423.1723     -3337.7768      28294.999      30.472159      1.1108685    
     56500   296.4014       1453.4758     -3054.6865      28294.999      30.472159      1.1108685    
     56600   300.89789      1358.5875     -981.08426      28294.999      30.472159      1.1108685    
     56700   295.25333      1378.2309     -3879.4099      28294.999      30.472159      1.1108685    
     56800   296.26166      1416.395      -3139.583       28294.999      30.472159      1.1108685    
     56900   305.07994      1441.4948     -3950.5123      28294.999      30.472159      1.1108685    
     57000   300.54038      1488.1303     -1952.9267      28294.999      30.472159      1.1108685    
     57100   299.4203       1446.6318     -2749.2712      28294.999      30.472159      1.1108685    
     57200   303.88238      1348.3477     -2311.1073      28294.999      30.472159      1.1108685    
     57300   297.08563      1357.4112     -3520.1569      28294.999      30.472159      1.1108685    
     57400   293.46045      1339.6185     -3258.3881      28294.999      30.472159      1.1108685    
     57500   296.07663      1403.6625     -1853.391       28294.999      30.472159      1.1108685    
     57600   300.7101       1432.3651     -1497.5522      28294.999      30.472159      1.1108685    
     57700   290.66235      1550.5403     -2619.5853      28294.999      30.472159      1.1108685    
     57800   307.82068      1403.1282     -2768.3263      28294.999      30.472159      1.1108685    
     57900   298.89372      1423.2346     -971.47364      28294.999      30.472159      1.1108685    
     58000   296.87412      1365.9298     -1820.5505      28294.999      30.472159      1.1108685    
     58100   300.71504      1342.773      -969.30197      28294.999      30.472159      1.1108685    
     58200   302.27257      1406.5121     -2319.7482      28294.999      30.472159      1.1108685    
     58300   301.43943      1429.1854     -2650.8929      28294.999      30.472159      1.1108685    
     58400   303.59389      1418.5233     -2187.5193      28294.999      30.472159      1.1108685    
     58500   298.93471      1453.8408     -2731.3248      28294.999      30.472159      1.1108685    
     58600   302.08569      1389.8492     -2093.025       28294.999      30.472159      1.1108685    
     58700   292.33366      1404.9559     -2348.0726      28294.999      30.472159      1.1108685    
     58800   294.14648      1388.8563     -2113.1633      28294.999      30.472159      1.1108685    
     58900   298.08664      1464.5045     -1971.549       28294.999      30.472159      1.1108685    
     59000   303.581        1438.9694     -2842.9228      28294.999      30.472159      1.1108685    
     59100   300.90569      1424.9015     -1001.6198      28294.999      30.472159      1.1108685    
     59200   299.51719      1391.9186     -2213.9147      28294.999      30.472159      1.1108685    
     59300   298.04566      1403.9979     -2918.1191      28294.999      30.472159      1.1108685    
     59400   303.361        1434.0508     -2304.292       28294.999      30.472159      1.1108685    
     59500   298.04688      1525.0906     -4360.1882      28294.999      30.472159      1.1108685    
     59600   305.53823      1423.5682     -1239.6111      28294.999      30.472159      1.1108685    
     59700   297.90813      1397.2227      86.441735      28294.999      30.472159      1.1108685    
     59800   295.46404      1417.8375     -2306.5224      28294.999      30.472159      1.1108685    
     59900   301.73449      1396.2919     -527.05511      28294.999      30.472159      1.1108685    
     60000   300.94345      1436.0644     -4638.1111      28294.999      30.472159      1.1108685    
     60100   304.22455      1423.4939     -1512.7343      28294.999      30.472159      1.1108685    
     60200   301.38182      1440.0606     -1841.702       28294.999      30.472159      1.1108685    
     60300   296.07624      1441.214      -1923.1903      28294.999      30.472159      1.1108685    
     60400   292.04222      1430.0047     -2027.8496      28294.999      30.472159      1.1108685    
     60500   299.12467      1393.7554     -1693.4816      28294.999      30.472159      1.1108685    
     60600   298.83439      1492.299      -538.16588      28294.999      30.472159      1.1108685    
     60700   301.63464      1469.0766     -2125.0297      28294.999      30.472159      1.1108685    
     60800   304.86849      1415.4194     -1263.3001      28294.999      30.472159      1.1108685    
     60900   301.66743      1391.437      -794.75442      28294.999      30.472159      1.1108685    
     61000   300.81854      1299.3069     -2376.8468      28294.999      30.472159      1.1108685    
     61100   291.06793      1338.6192     -4541.5787      28294.999      30.472159      1.1108685    
     61200   294.73894      1363.4734     -3147.713       28294.999      30.472159      1.1108685    
     61300   303.09066      1360.5157     -3209.1093      28294.999      30.472159      1.1108685    
     61400   296.83738      1476.1706     -2940.0281      28294.999      30.472159      1.1108685    
     61500   302.41784      1477.2598     -1237.442       28294.999      30.472159      1.1108685    
     61600   303.06625      1481.6078     -2044.6942      28294.999      30.472159      1.1108685    
     61700   299.16415      1431.2367     -2144.9528      28294.999      30.472159      1.1108685    
     61800   294.18953      1404.0303     -2352.8727      28294.999      30.472159      1.1108685    
     61900   293.16778      1434.9291     -3541.2438      28294.999      30.472159      1.1108685    
     62000   301.57378      1415.695      -2696.6018      28294.999      30.472159      1.1108685    
     62100   308.54063      1402.1208     -3175.7394      28294.999      30.472159      1.1108685    
     62200   300.86709      1461.1725     -3826.6467      28294.999      30.472159      1.1108685    
     62300   298.27829      1413.0882     -2516.9784      28294.999      30.472159      1.1108685    
     62400   296.90202      1310.2074     -1472.8087      28294.999      30.472159      1.1108685    
     62500   301.31904      1342.2377     -2842.6805      28294.999      30.472159      1.1108685    
     62600   300.7088       1419.4041     -2454.7243      28294.999      30.472159      1.1108685    
     62700   301.47996      1449.9958     -2795.3506      28294.999      30.472159      1.1108685    
     62800   304.25139      1436.296      -826.2657       28294.999      30.472159      1.1108685    
     62900   294.4414       1449.1397     -2358.3785      28294.999      30.472159      1.1108685    
     63000   295.2712       1379.3249     -2311.4659      28294.999      30.472159      1.1108685    
     63100   299.11471      1385.5079     -3042.3224      28294.999      30.472159      1.1108685    
     63200   300.83648      1435.6859     -4224.8766      28294.999      30.472159      1.1108685    
     63300   303.81602      1414.7736     -3407.1869      28294.999      30.472159      1.1108685    
     63400   297.20835      1454.6887     -3248.2135      28294.999      30.472159      1.1108685    
     63500   301.44451      1380.1195     -1438.4833      28294.999      30.472159      1.1108685    
     63600   290.49811      1428.1679     -2794.3703      28294.999      30.472159      1.1108685    
     63700   292.47437      1383.9836     -3240.9423      28294.999      30.472159      1.1108685    
     63800   298.72552      1403.2823     -3461.1493      28294.999      30.472159      1.1108685    
     63900   305.54499      1416.2113     -5319.7304      28294.999      30.472159      1.1108685    
     64000   305.25941      1413.7302     -4019.6867      28294.999      30.472159      1.1108685    
     64100   298.17205      1422.7947     -3566.1435      28294.999      30.472159      1.1108685    
     64200   291.72892      1412.6956     -838.4701       28294.999      30.472159      1.1108685    
     64300   290.35089      1423.4201     -523.28693      28294.999      30.472159      1.1108685    
     64400   305.03232      1429.7476     -2389.067       28294.999      30.472159      1.1108685    
     64500   304.78172      1427.951      -2474.144       28294.999      30.472159      1.1108685    
     64600   307.62801      1330.8549     -1345.695       28294.999      30.472159      1.1108685    
     64700   294.08741      1413.1634     -3598.3132      28294.999      30.472159      1.1108685    
     64800   301.76528      1394.4881     -1068.5773      28294.999      30.472159      1.1108685    
     64900   296.61166      1523.0591     -1828.2749      28294.999      30.472159      1.1108685    
     65000   300.52603      1477.1346     -4743.4697      28294.999      30.472159      1.1108685    
     65100   304.51933      1387.781      -3086.7964      28294.999      30.472159      1.1108685    
     65200   296.61734      1417.9434     -3380.2693      28294.999      30.472159      1.1108685    
     65300   302.75774      1352.1247     -3667.4618      28294.999      30.472159      1.1108685    
     65400   301.46905      1398.5279     -2941.4448      28294.999      30.472159      1.1108685    
     65500   306.18648      1461.907       303.82554      28294.999      30.472159      1.1108685    
     65600   304.67465      1462.8897     -1378.3972      28294.999      30.472159      1.1108685    
     65700   301.73434      1416.0396     -2310.6311      28294.999      30.472159      1.1108685    
     65800   299.38348      1401.2395     -567.01958      28294.999      30.472159      1.1108685    
     65900   301.51471      1398.6301     -1259.4303      28294.999      30.472159      1.1108685    
     66000   304.65788      1381.6323     -2503.6866      28294.999      30.472159      1.1108685    
     66100   303.74665      1388.7928     -1931.7634      28294.999      30.472159      1.1108685    
     66200   297.13436      1445.6049     -3276.9981      28294.999      30.472159      1.1108685    
     66300   296.77885      1445.6515     -2533.7193      28294.999      30.472159      1.1108685    
     66400   300.52166      1429.4163     -2400.9638      28294.999      30.472159      1.1108685    
     66500   298.85692      1469.5708     -3976.7969      28294.999      30.472159      1.1108685    
     66600   302.69579      1487.0861     -2662.9357      28294.999      30.472159      1.1108685    
     66700   305.18911      1499.3549     -2531.5001      28294.999      30.472159      1.1108685    
     66800   301.69474      1445.5854     -2435.927       28294.999      30.472159      1.1108685    
     66900   299.06879      1410.0717     -1596.4874      28294.999      30.472159      1.1108685    
     67000   297.36819      1418.0953     -2996.689       28294.999      30.472159      1.1108685    
     67100   297.01553      1445.8893     -2988.2422      28294.999      30.472159      1.1108685    
     67200   301.44388      1498.4954     -2549.8753      28294.999      30.472159      1.1108685    
     67300   310.99806      1433.0125     -2615.8136      28294.999      30.472159      1.1108685    
     67400   299.42655      1465.6146     -3157.5934      28294.999      30.472159      1.1108685    
     67500   302.4384       1416.2954     -2000.3304      28294.999      30.472159      1.1108685    
     67600   295.8541       1445.67       -2035.0923      28294.999      30.472159      1.1108685    
     67700   299.0678       1399.1605     -2417.6741      28294.999      30.472159      1.1108685    
     67800   293.96308      1437.3129     -3265.6299      28294.999      30.472159      1.1108685    
     67900   302.53123      1370.2067     -2033.8252      28294.999      30.472159      1.1108685    
     68000   296.86879      1438.2299     -1786.6252      28294.999      30.472159      1.1108685    
     68100   301.76004      1427.7473     -3494.4939      28294.999      30.472159      1.1108685    
     68200   307.12998      1415.7282     -1125.2613      28294.999      30.472159      1.1108685    
     68300   300.16821      1454.1079     -2058.1542      28294.999      30.472159      1.1108685    
     68400   297.54852      1386.9397     -2305.351       28294.999      30.472159      1.1108685    
     68500   295.08966      1390.3318     -2992.3067      28294.999      30.472159      1.1108685    
     68600   296.83398      1429.3509     -2806.0456      28294.999      30.472159      1.1108685    
     68700   298.4166       1472.4638     -1994.9976      28294.999      30.472159      1.1108685    
     68800   303.41806      1436.6148     -5099.3509      28294.999      30.472159      1.1108685    
     68900   295.92788      1465.9536     -3355.0735      28294.999      30.472159      1.1108685    
     69000   292.38786      1432.4193     -2712.6197      28294.999      30.472159      1.1108685    
     69100   296.1747       1400.2851     -1720.4822      28294.999      30.472159      1.1108685    
     69200   309.93505      1398.1722     -2692.3869      28294.999      30.472159      1.1108685    
     69300   307.19498      1442.1359     -3447.6696      28294.999      30.472159      1.1108685    
     69400   299.85879      1452.1655     -3649.8101      28294.999      30.472159      1.1108685    
     69500   304.77188      1352.1482     -608.53689      28294.999      30.472159      1.1108685    
     69600   295.75715      1418.1052     -882.03512      28294.999      30.472159      1.1108685    
     69700   298.44196      1404.6356     -3367.1297      28294.999      30.472159      1.1108685    
     69800   306.99835      1440.7216     -2125.4574      28294.999      30.472159      1.1108685    
     69900   309.37787      1438.3304     -3166.2753      28294.999      30.472159      1.1108685    
     70000   302.76239      1420.8424     -2695.445       28294.999      30.472159      1.1108685    
     70100   301.47334      1387.7037     -1165.6797      28294.999      30.472159      1.1108685    
     70200   296.22728      1422.2827     -651.83862      28294.999      30.472159      1.1108685    
     70300   297.51271      1433.1169     -1315.9669      28294.999      30.472159      1.1108685    
     70400   310.51071      1441.1979     -1005.3177      28294.999      30.472159      1.1108685    
     70500   303.52697      1502.8632     -3537.1539      28294.999      30.472159      1.1108685    
     70600   303.95871      1419.5934     -2595.726       28294.999      30.472159      1.1108685    
     70700   290.79616      1486.9145     -2425.7733      28294.999      30.472159      1.1108685    
     70800   299.57454      1395.4064     -2699.0129      28294.999      30.472159      1.1108685    
     70900   301.02062      1399.0874     -1682.1778      28294.999      30.472159      1.1108685    
     71000   311.04336      1396.8992     -4158.9231      28294.999      30.472159      1.1108685    
     71100   304.85348      1477.9883     -1650.0176      28294.999      30.472159      1.1108685    
     71200   302.905        1405.148       409.1144       28294.999      30.472159      1.1108685    
     71300   297.81236      1414.9603     -1821.7366      28294.999      30.472159      1.1108685    
     71400   299.89129      1398.3718     -4248.1308      28294.999      30.472159      1.1108685    
     71500   294.319        1450.5369     -3705.5667      28294.999      30.472159      1.1108685    
     71600   301.15559      1362.3595     -2136.6041      28294.999      30.472159      1.1108685    
     71700   296.51562      1335.2129     -1463.1692      28294.999      30.472159      1.1108685    
     71800   297.27892      1356.6755     -3450.763       28294.999      30.472159      1.1108685    
     71900   303.85171      1397.9572     -3295.9451      28294.999      30.472159      1.1108685    
     72000   300.47812      1437.2863     -1528.9565      28294.999      30.472159      1.1108685    
     72100   295.83013      1455.8049     -1994.3495      28294.999      30.472159      1.1108685    
     72200   296.98355      1385.77       -1906.9648      28294.999      30.472159      1.1108685    
     72300   297.68599      1301.0307     -3023.0437      28294.999      30.472159      1.1108685    
     72400   291.19185      1387.866      -2690.6893      28294.999      30.472159      1.1108685    
     72500   299.89946      1429.9424     -2441.5332      28294.999      30.472159      1.1108685    
     72600   304.07229      1406.9636     -591.43952      28294.999      30.472159      1.1108685    
     72700   303.9251       1374.3821     -1405.5851      28294.999      30.472159      1.1108685    
     72800   294.54881      1399.4645     -454.9231       28294.999      30.472159      1.1108685    
     72900   296.44785      1382.3513      260.59917      28294.999      30.472159      1.1108685    
     73000   301.67619      1443.6628     -1363.427       28294.999      30.472159      1.1108685    
     73100   298.34146      1497.0097     -1844.7004      28294.999      30.472159      1.1108685    
     73200   300.08605      1443.384      -929.20848      28294.999      30.472159      1.1108685    
     73300   299.22817      1406.1912     -2521.7071      28294.999      30.472159      1.1108685    
     73400   301.48078      1355.7768     -2149.7195      28294.999      30.472159      1.1108685    
     73500   302.19411      1349.9526     -2862.3755      28294.999      30.472159      1.1108685    
     73600   300.36756      1378.7303     -1343.1654      28294.999      30.472159      1.1108685    
     73700   298.62437      1415.0163     -2136.1243      28294.999      30.472159      1.1108685    
     73800   300.36449      1426.2426     -3724.7771      28294.999      30.472159      1.1108685    
     73900   303.19059      1428.0489     -584.85969      28294.999      30.472159      1.1108685    
     74000   298.72571      1472.9055     -943.70314      28294.999      30.472159      1.1108685    
     74100   299.35042      1419.6134     -3655.0454      28294.999      30.472159      1.1108685    
     74200   297.7565       1377.6347     -284.59297      28294.999      30.472159      1.1108685    
     74300   298.54461      1375.4752     -2710.2042      28294.999      30.472159      1.1108685    
     74400   304.69295      1426.8996     -2901.488       28294.999      30.472159      1.1108685    
[...]
    733600   299.52678      1305.3178      486.05953      25965.099      29.611699      1.2105489    
    733700   298.16545      1263.4794      19.636409      26160.357      29.685741      1.2015135    
    733800   302.54262      1209.2738     -1539.5601      26085.114      29.657252      1.2049793    
    733900   299.03662      1244.1177      2360.217       25854.106      29.569445      1.2157459    
    734000   297.69824      1259.609      -2032.3863      26076.046      29.653815      1.2053984    
    734100   306.17293      1247.9961      2148.4964      25990.383      29.621308      1.2093713    
    734200   307.11536      1273.5517     -482.74854      26204.736      29.702518      1.1994787    
    734300   297.70873      1290.3741      438.69542      26004.943      29.626838      1.2086942    
    734400   291.16722      1284.7817      900.56513      26186.006      29.695439      1.2003366    
    734500   300.9546       1202.6054     -94.186354      26088.385      29.658492      1.2048282    
    734600   296.99087      1261.6081      320.49342      26035.864      29.638576      1.2072587    
    734700   303.12185      1217.1175      87.428771      26036.999      29.639006      1.207206     
    734800   294.59916      1289.0597     -634.93067      26130.302      29.674368      1.2028955    
    734900   300.96832      1236.4343      1766.1163      25925.641      29.596692      1.2123913    
    735000   300.85553      1244.6085     -694.92856      26133.7        29.675654      1.2027391    
    735100   300.09942      1282.3348     -1447.3242      26136.621      29.67676       1.2026047    
    735200   305.18835      1305.7629      940.9856       26054.103      29.645495      1.2064135    
    735300   306.54741      1277.069       1614.0247      25978.416      29.616761      1.2099284    
    735400   299.51683      1252.8669      448.83485      26085.669      29.657463      1.2049537    
    735500   291.26087      1307.7511     -1356.3487      26223.135      29.709468      1.1986371    
    735600   302.7855       1234.5831      1180.3818      26012.734      29.629796      1.2083321    
    735700   303.04521      1274.677      -2549.6836      25947.331      29.604943      1.2113778    
    735800   311.16947      1275.5897     -867.12923      25864.877      29.573551      1.2152396    
    735900   303.89913      1300.6033      1400.3097      25897.092      29.585824      1.2137279    
    736000   296.16394      1264.4205      518.26433      26002.987      29.626095      1.2087851    
    736100   294.91847      1241.5359      175.5696       26059.185      29.647423      1.2061783    
    736200   300.01356      1212.764       710.58538      25766.962      29.536186      1.2198575    
    736300   302.86124      1253.4656     -453.94168      25773.227      29.538579      1.219561     
    736400   302.37715      1313.2241     -578.09631      25797.058      29.54768       1.2184344    
    736500   304.30825      1242.1887      1000.931       26204.35       29.702372      1.1994963    
    736600   299.52547      1175.2072     -153.5534       26067.698      29.650651      1.2057844    
    736700   297.33939      1205.5859     -3199.628       26073.522      29.652859      1.205515     
    736800   302.8683       1214.2333      1582.0828      25879.294      29.579044      1.2145626    
    736900   298.95518      1293.4093      101.87522      26075.843      29.653739      1.2054077    
    737000   303.25534      1222.8031      834.7122       26085.389      29.657357      1.2049666    
    737100   299.45287      1136.2255     -30.800703      26061.791      29.648411      1.2060576    
    737200   303.45471      1117.6368      623.37624      25910.094      29.590774      1.2131188    
    737300   301.77365      1204.6931     -1296.8568      25999.03       29.624592      1.208969     
    737400   305.19245      1218.0899      54.944272      25862.455      29.572628      1.2153534    
    737500   298.14907      1279.2743     -832.09712      25959.967      29.609748      1.2107882    
    737600   305.73986      1192.5403     -857.82315      26045.047      29.64206       1.206833     
    737700   294.38755      1177.6181      2165.8584      25791.206      29.545446      1.2187108    
    737800   296.53654      1150.8698      291.31632      25949.732      29.605856      1.2112658    
    737900   302.24372      1176.8894      868.76455      25911.876      29.591453      1.2130354    
    738000   306.02076      1189.0551     -1034.0489      25965.693      29.611925      1.2105212    
    738100   299.7056       1242.3805      108.38998      26002.783      29.626018      1.2087945    
    738200   300.37343      1212.5183     -530.12666      25999.852      29.624904      1.2089308    
    738300   298.25759      1158.7789     -173.68932      26047.583      29.643022      1.2067155    
    738400   292.19995      1161.4097     -1005.7461      26055.943      29.646193      1.2063283    
    738500   295.09599      1223.4624      183.52619      26063.964      29.649235      1.2059571    
    738600   303.9129       1200.2402      922.79312      26011.971      29.629507      1.2083676    
    738700   300.52486      1252.307       563.87003      25962.011      29.610525      1.2106929    
    738800   298.19985      1253.4938     -779.85976      26105.304      29.664902      1.2040473    
    738900   293.64726      1252.4671      376.72731      25964.2        29.611357      1.2105908    
    739000   294.77547      1175.9731     -729.93699      25732.821      29.523135      1.221476     
    739100   292.8877       1155.4686      1728.2673      25734.256      29.523683      1.2214079    
    739200   291.23324      1238.135      -271.47456      25873.411      29.576803      1.2148388    
    739300   298.86331      1267.1541     -209.29076      25859.006      29.571313      1.2155155    
    739400   303.40658      1249.5579     -781.30518      25966.167      29.612105      1.2104991    
    739500   299.27001      1255.8169      2443.6982      25897.605      29.586019      1.2137038    
    739600   297.61536      1206.4541      1703.0343      25823.01       29.557585      1.2172099    
    739700   300.32808      1128.6399      106.57553      25982.274      29.618227      1.2097487    
    739800   292.65346      1153.5566     -152.03532      25929.105      29.59801       1.2122293    
    739900   293.98839      1203.4963      385.44019      25846.138      29.566407      1.2161206    
    740000   298.44462      1262.1274     -1939.8917      25922.64       29.595549      1.2125317    
    740100   302.91875      1257.2194     -1064.3535      25973.41       29.614858      1.2101616    
    740200   301.47572      1238.634       2784.3543      25953.83       29.607415      1.2110745    
    740300   302.54882      1175.3767     -1708.156       26100.035      29.662906      1.2042905    
    740400   300.60931      1154.0602     -839.14501      26143.17       29.679238      1.2023034    
    740500   298.39497      1214.1628     -2066.9354      26271.945      29.727889      1.1964102    
    740600   303.99585      1262.6693      827.53673      26132.608      29.675241      1.2027893    
    740700   304.3204       1265.6904     -82.703028      26189.796      29.696872      1.2001629    
    740800   298.4559       1258.7637     -684.89833      26264.646      29.725136      1.1967426    
    740900   299.23272      1200.0754     -141.40708      25977.621      29.616459      1.2099654    
    741000   296.82697      1187.6263      43.294274      25847.001      29.566736      1.21608      
    741100   293.94667      1142.5229     -1808.6623      25896.852      29.585732      1.2137391    
    741200   290.6513       1202.4927     -1693.2864      26212.449      29.705431      1.1991258    
    741300   300.78799      1215.9661     -543.65759      26083.071      29.656478      1.2050737    
    741400   300.87285      1261.317      -262.05129      26118.848      29.670031      1.203423     
    741500   301.77959      1262.0875      611.3837       26070.552      29.651733      1.2056524    
    741600   297.63375      1246.2889     -712.73854      26110.726      29.666956      1.2037973    
    741700   291.98953      1230.7345     -92.345648      26024.588      29.634297      1.2077817    
    741800   300.111        1146.2469      884.61741      26058.588      29.647196      1.2062059    
    741900   305.38697      1220.8594     -1985.3152      26115.371      29.668715      1.2035832    
    742000   302.55159      1275.0254     -1028.0761      25931.906      29.599075      1.2120984    
    742100   301.20532      1243.5722      1686.7696      26061.163      29.648173      1.2060867    
    742200   299.52929      1208.5142      51.133715      25931.379      29.598875      1.2121231    
    742300   296.14976      1188.9747     -1139.7537      25773.788      29.538793      1.2195345    
    742400   292.27144      1160.3763     -2281.1167      25825.932      29.5587        1.2170721    
    742500   289.70448      1217.3907      1280.1266      26032.399      29.637261      1.2074194    
    742600   297.31792      1254.6914     -2584.7791      26033.532      29.637691      1.2073668    
    742700   298.23034      1283.3194     -1801.2179      26062.202      29.648567      1.2060386    
    742800   298.61148      1274.1655     -52.683502      26124.282      29.672089      1.2031727    
    742900   295.36555      1246.2008      540.00276      26047.057      29.642822      1.2067399    
    743000   295.84749      1173.9092     -1791.3576      25904.758      29.588743      1.2133687    
    743100   299.3705       1143.0596     -1082.9095      25954.662      29.607731      1.2110357    
    743200   299.3146       1274.1096      117.29345      25899.988      29.586927      1.2135922    
    743300   309.35526      1204.1471     -1971.1315      25720.955      29.518596      1.2220395    
    743400   295.98156      1300.3656     -721.82591      25749.056      29.529342      1.2207058    
    743500   297.05945      1235.0676      3189.9917      25755.766      29.531907      1.2203878    
    743600   290.78977      1229.9495      1063.0461      25632.702      29.484796      1.2262469    
    743700   288.95841      1241.6688     -2223.2093      25683.288      29.504179      1.2238317    
    743800   301.21397      1246.8517     -1392.4211      25823.147      29.557638      1.2172034    
    743900   305.10891      1242.9826      715.25766      25846.663      29.566607      1.216096     
    744000   301.05747      1236.2671      387.01632      25819.359      29.556192      1.217382     
    744100   298.88416      1182.5172      1306.7137      25949.17       29.605642      1.211292     
    744200   299.6196       1162.6047     -2043.8111      26073.791      29.65296       1.2055026    
    744300   298.62313      1228.435       2564.0703      25871.388      29.576032      1.2149338    
    744400   308.58682      1178.7026      1069.5907      26061.001      29.648111      1.2060942    
    744500   302.52612      1228.3866     -2414.563       26134.755      29.676053      1.2026906    
    744600   299.48809      1242.6778      622.38088      25780.506      29.54136       1.2192167    
    744700   301.44308      1206.916       1957.3085      25896.748      29.585693      1.213744     
    744800   293.58578      1228.2588      1459.3509      25826.13       29.558776      1.2170628    
    744900   291.04486      1227.969      -1033.9029      25985.176      29.619329      1.2096136    
    745000   291.57262      1309.4427      1365.4524      26000.055      29.624982      1.2089214    
    745100   302.40008      1263.9136      373.41172      25842.398      29.564981      1.2162967    
    745200   309.51154      1171.121      -909.03483      25862.063      29.572478      1.2153718    
    745300   303.73301      1167.4287      398.20281      25759.265      29.533244      1.220222     
    745400   299.37084      1190.6201      1232.3171      25866.123      29.574026      1.2151811    
    745500   294.157        1253.1573      1705.906       25932.696      29.599376      1.2120615    
    745600   298.04144      1256.4695      2095.4567      25901.259      29.58741       1.2135326    
    745700   301.24966      1240.1731      236.69115      25915.446      29.592812      1.2128683    
    745800   298.72717      1222.8072     -1298.6655      25848.642      29.567362      1.2160029    
    745900   294.77272      1152.1094     -315.08978      25885.821      29.581531      1.2142563    
    746000   294.39548      1173.0233      428.26156      25919.947      29.594525      1.2126577    
    746100   298.58673      1196.808      -1139.638       25804.741      29.550613      1.2180716    
    746200   295.30604      1264.8865     -1526.3292      25867.065      29.574385      1.2151368    
    746300   297.73102      1251.7855      2162.6403      25721.815      29.518925      1.2219986    
    746400   301.41927      1220.6009      1825.5462      25829.022      29.559879      1.2169265    
    746500   300.09561      1234.4201     -3387.2048      25972.733      29.614601      1.2101931    
    746600   303.58055      1185.5288      479.74208      26001.563      29.625554      1.2088513    
    746700   294.84512      1236.2803      763.00677      26019.774      29.632469      1.2080052    
    746800   298.36463      1190.6357     -711.05417      25823.191      29.557654      1.2172013    
    746900   300.72992      1206.6812     -1826.5464      25879.157      29.578992      1.214569     
    747000   299.48717      1293.9326     -290.39131      25884.812      29.581147      1.2143037    
    747100   302.72268      1258.0527      1346.1439      25891.958      29.583869      1.2139685    
    747200   292.54181      1255.0607     -654.70987      26031.03       29.636742      1.2074828    
    747300   296.93991      1158.5459      752.25425      25629.09       29.483411      1.2264198    
    747400   302.20362      1134.7556      63.60634       25633.599      29.48514       1.226204     
    747500   297.4806       1233.123       332.11284      25956.1        29.608278      1.2109686    
    747600   300.76669      1236.8103     -964.36638      25939.008      29.601777      1.2117666    
    747700   303.8269       1215.5916      368.44963      25825.62       29.558581      1.2170868    
    747800   298.9428       1163.1301      478.58077      26007.348      29.627751      1.2085824    
    747900   290.30545      1195.1059     -724.35713      26122.108      29.671266      1.2032728    
    748000   296.44807      1209.3299      1526.2141      25872.677      29.576523      1.2148732    
    748100   307.75312      1174.9046      614.58782      25884.803      29.581143      1.2143041    
    748200   292.28092      1314.5605     -2204.9533      26039.775      29.64006       1.2070773    
    748300   304.24768      1181.7302      262.91709      25993.586      29.622524      1.2092222    
    748400   298.12016      1157.3443      1727.1642      25841.869      29.564779      1.2163216    
    748500   291.9149       1168.7808      757.64752      25929.508      29.598163      1.2122105    
    748600   302.34699      1161.6283      549.80705      25834.636      29.562021      1.2166621    
    748700   305.66454      1188.6789     -1361.9916      25992.861      29.622249      1.209256     
    748800   301.36749      1230.2982     -367.33545      25939.593      29.602         1.2117392    
    748900   301.66098      1231.0287     -1208.2515      25963.613      29.611134      1.2106182    
    749000   294.72021      1261.0044     -1136.5194      25858.893      29.57127       1.2155208    
    749100   296.16967      1199.7911      86.679408      25908.11       29.590019      1.2132117    
    749200   295.21615      1211.4285      2189.8381      26074.398      29.653191      1.2054745    
    749300   302.25541      1249.9335     -2240.0862      26238.479      29.715261      1.1979362    
    749400   310.71127      1203.1752      727.25918      25858.16       29.570991      1.2155553    
    749500   299.09817      1255.1993     -847.8268       25940.367      29.602294      1.2117031    
    749600   299.67897      1200.0975     -1096.9383      26017.603      29.631645      1.208106     
    749700   294.97835      1237.3646      209.59964      25990.611      29.621394      1.2093606    
    749800   299.23504      1213.5264      38.423062      26056.229      29.646301      1.2063151    
    749900   299.07623      1226.7364      3275.3154      25958.09       29.609035      1.2108758    
    750000   303.38665      1180.5         1136.8678      25782.086      29.541963      1.2191419    
    750100   298.31597      1216.6324     -520.6874       25637.974      29.486818      1.2259948    
    750200   297.47243      1222.2239      1106.2544      25779.167      29.540848      1.21928      
    750300   305.23153      1181.9524      38.522178      26005.92       29.627209      1.2086487    
    750400   299.66046      1245.4518     -2679.0012      26181.341      29.693676      1.2005505    
    750500   312.30444      1131.8677     -128.07482      25989.152      29.62084       1.2094286    
    750600   296.71596      1218.9692      79.721012      25972.272      29.614426      1.2102146    
    750700   292.78637      1212.5817      378.6728       25936.959      29.600998      1.2118623    
    750800   296.51615      1222.7814      220.78749      25913.209      29.59196       1.212973     
    750900   298.28157      1308.3116     -385.78638      25869.96       29.575488      1.2150008    
    751000   304.01876      1267.2563     -1151.8922      25993.478      29.622483      1.2092273    
    751100   301.58948      1246.4643      0.47428421     26081.371      29.655834      1.2051522    
    751200   295.22033      1262.9074      1869.0368      26009.969      29.628746      1.2084606    
    751300   301.53357      1201.4711      1285.732       26059.34       29.647481      1.2061711    
    751400   300.64082      1224.0442      763.28601      26047.768      29.643092      1.2067069    
    751500   301.84722      1229.3547      889.7945       26114.743      29.668477      1.2036122    
    751600   301.30029      1259.1489     -247.69123      26173.619      29.690756      1.2009047    
    751606   299.09361      1282.0866      360.38564      26233.069      29.713219      1.1981832    
Loop time of 2474.73 on 1 procs for 250000 steps with 2991 atoms

Performance: 8.728 ns/day, 2.750 hours/ns, 101.021 timesteps/s
99.9% CPU use with 1 MPI tasks x no OpenMP threads

MPI task timing breakdown:
Section |  min time  |  avg time  |  max time  |%varavg| %total
---------------------------------------------------------------
Pair    | 2014       | 2014       | 2014       |   0.0 | 81.38
Bond    | 57.828     | 57.828     | 57.828     |   0.0 |  2.34
Neigh   | 372.76     | 372.76     | 372.76     |   0.0 | 15.06
Comm    | 11.337     | 11.337     | 11.337     |   0.0 |  0.46
Output  | 3.9617     | 3.9617     | 3.9617     |   0.0 |  0.16
Modify  | 13.576     | 13.576     | 13.576     |   0.0 |  0.55
Other   |            | 1.239      |            |       |  0.05

Nlocal:           2991 ave        2991 max        2991 min
Histogram: 1 0 0 0 0 0 0 0 0 0
Nghost:          14823 ave       14823 max       14823 min
Histogram: 1 0 0 0 0 0 0 0 0 0
Neighs:     1.2172e+06 ave  1.2172e+06 max  1.2172e+06 min
Histogram: 1 0 0 0 0 0 0 0 0 0

Total # of neighbors = 1217202
Ave neighs/atom = 406.95486
Ave special neighs/atom = 12.138415
Neighbor list builds = 12094
Dangerous builds = 0
unfix			1
#final
write_data		after_cross_linking_latest_correct.data
System init for write_data ...
Generated 153 of 153 mixed pair_coeff terms from geometric mixing rule

#parameter
neighbor		2.0 bin
Total wall time: 2:02:20
