LAMMPS data file via write_data, version 23 Jun 2022, timestep = 4999

3108 atoms
13 atom types
3084 bonds
13 bond types
5680 angles
23 angle types

-4.9465 95.0535 xlo xhi
-7.861 92.139 ylo yhi
-4.977498 95.022502 zlo zhi

Masses

1 1.00794
2 1.00794
3 12.0107
4 12.0107
5 1.00794
6 1.00794
7 1.00794
8 1.00794
9 15.9994
10 12.0107
11 12.0107
12 1.00794
13 15.9994

Pair Coeffs # lj/cut

1 0.038 2.44997
2 0.038 2.44997
3 0.039 3.87541
4 0.039 3.87541
5 0.038 2.44997
6 0.038 2.44997
7 0 0
8 0.038 2.44997
9 0.228 2.85978
10 0.148 3.61705
11 0.039 3.87541
12 0.038 2.44997
13 0.228 2.85978

Bond Coeffs # harmonic

1 340.618 1.105
2 340.618 1.105
3 322.716 1.526
4 340.618 1.105
5 340.618 1.105
6 340.618 1.105
7 384 1.42
8 540.634 0.96
9 283.092 1.52
10 340.618 1.105
11 615.322 1.23
12 322.716 1.526
13 340.618 1.105

Angle Coeffs # harmonic

1 39.5 106.4
2 44.4 110
3 39.5 106.4
4 44.4 110
5 39.5 106.4
6 46.6 110.5
7 44.4 110
8 44.4 110
9 70 109.5
10 46.6 110.5
11 44.4 110
12 58.5 106
13 39.5 106.4
14 57 109.5
15 57 109.5
16 46.6 110.5
17 45 109.5
18 50 120
19 68 120
20 46.6 110.5
21 44.4 110
22 55 120
23 39.5 106.4

Atoms # full

2078 3 8 0 32.617018062939785 8.284076985876151 0.7599992779133702 0 0 0
2071 3 8 0 31.331338408509048 10.117099462924418 1.0973378108049014 0 0 0
2102 3 1 0 37.171848500670166 8.013975892696712 0.47928871208825713 0 0 0
2101 3 4 0 39.03879777691613 7.028728436285857 -0.009371953318111153 0 0 0
2105 3 6 0 38.67136281490968 7.145533920984374 -1.0447670228798143 0 0 0
2103 3 5 0 39.016736020013525 5.9470289832492425 0.2142582845957819 0 0 0
2104 3 9 0 40.37139018531718 7.510160755920793 0.08269579250215864 0 0 0
2106 3 7 0 40.66084310486338 7.318281071805443 0.9776826007966719 0 0 0
2057 3 8 0 29.73938969605178 8.715531995852361 5.461272967546051 0 0 0
2058 3 3 0 29.82442735578299 9.732166411704249 5.885130762886432 0 0 0
2059 3 4 0 28.983526810137942 10.720019544494246 5.076068479588228 0 0 0
2060 3 1 0 30.893202532112593 10.004507423250429 5.821012804746961 0 0 0
2061 3 5 0 27.944939384907347 10.702055499116964 5.452541361306215 0 0 0
2064 3 8 0 28.131162572568304 10.88882247875504 3.098256601752636 0 0 0
2065 3 3 0 28.969378609844746 10.361778020383948 3.5883093848121677 0 0 0
2066 3 4 0 30.274913388168116 10.730624152981276 2.8774091781297337 0 0 0
2067 3 1 0 28.75138058916801 9.286217869286645 3.46405235003063 0 0 0
2068 3 5 0 31.0989932060142 10.847898120917797 3.6028863265626097 0 0 0
2072 3 3 0 30.654906873951557 9.667515600551104 1.846089160312092 0 0 0
2073 3 4 0 31.31488280841495 8.44745184225819 2.4954171552745334 0 0 0
2074 3 1 0 29.756382094789338 9.350630731217011 1.2865101748004781 0 0 0
2075 3 5 0 31.460705109105284 8.623196703743206 3.5756939387394397 0 0 0
2076 3 9 0 30.458927285064544 7.326465308339506 2.3349419612746263 0 0 0
2077 3 7 0 29.83130474811505 7.366751692109151 3.0602384808775582 0 0 0
2079 3 3 0 32.66413039529349 8.127856719420521 1.85268010534813 0 0 0
2081 3 1 0 32.884184823792566 7.054085853458415 1.9891555412802502 0 0 0
2082 3 5 0 33.358173981361055 9.899301810015329 2.884462863820522 0 0 0
2096 3 5 0 37.52605161438631 6.018957767799331 2.021779731326305 0 0 0
2083 3 9 0 34.69285181728565 9.347916389706459 1.4243114931609893 0 0 0
2084 3 7 0 34.36544535639331 10.177692550846599 1.0695630274682901 0 0 0
2095 3 1 0 36.979730463391604 8.845615612715696 2.9311553672157094 0 0 0
2100 3 3 0 38.14523647626857 7.801723223702805 0.9575017462391835 0 0 0
2080 3 4 0 33.78642283149503 8.977163054633074 2.4530594201302334 0 0 0
2085 3 8 0 33.7900422554079 7.693479422620606 4.198507893736576 0 0 0
2086 3 3 0 34.523506721634455 8.220704655275691 3.562045912365553 0 0 0
2087 3 4 0 35.54822307456539 7.21344411685673 3.034718472513309 0 0 0
2088 3 1 0 35.02271014966343 8.945608604262405 4.229971453470098 0 0 0
2089 3 5 0 35.341590648529646 6.969045773507637 1.9774287109501405 0 0 0
2090 3 9 0 35.44673585779087 6.022855769545825 3.801340586237634 0 0 0
2091 3 7 0 34.64666981182105 6.112253887666884 4.324311318936521 0 0 0
2092 3 8 0 37.30354549784028 7.679609861163324 4.218172920427885 0 0 0
2093 3 3 0 36.96622117990735 7.767016561519784 3.169764243212519 0 0 0
2094 3 4 0 37.93238448902156 7.020122654324453 2.2528334959014757 0 0 0
2099 3 8 0 38.601278530218615 8.783531435416602 1.179530911500872 0 0 0
2097 3 9 0 39.177702594223575 6.871034087786495 2.9180770259186515 0 0 0
2098 3 7 0 38.96753773100651 6.7228302844410575 3.8429740786583615 0 0 0
2069 3 9 0 30.091709540666674 11.966673974221687 2.203618265612918 0 0 0
2062 3 9 0 29.505297308718653 12.030054048820874 5.2463314741107485 0 0 0
2063 3 7 0 30.295931928102497 11.932468023096716 5.782063283798236 0 0 0
2070 3 7 0 29.445947449858764 12.455671460704787 2.718814373785151 0 0 0
2807 4 6 0 14.045808533173243 32.46815169589109 5.313348592534827 0 0 0
2805 4 5 0 13.156596509784777 32.484150559127265 6.846248726051849 0 0 0
2803 4 4 0 14.151410798070929 32.30367032347965 6.400807874232426 0 0 0
2804 4 1 0 15.372089087907598 34.08886883983285 6.271008973584704 0 0 0
2786 4 7 0 17.32105144506952 35.71925246490778 6.952041568634711 0 0 0
2806 4 9 0 14.55008066603603 30.96307471235998 6.645604281493898 0 0 0
2802 4 3 0 15.188805945105123 33.261974939955536 6.980702569774241 0 0 0
2801 4 8 0 16.15362262841987 32.736443401933954 7.09889549303896 0 0 0
2785 4 9 0 17.1288340602428 36.45924369335325 6.3714793971914725 0 0 0
2768 4 4 0 19.14887928880052 40.860479503343605 6.410783493632883 0 0 0
2771 4 9 0 20.218648327802846 40.72286123169991 5.487666495768389 0 0 0
2773 4 8 0 18.0748066768647 39.524141147691736 5.098690985388316 0 0 0
2774 4 3 0 17.858062650339672 40.40420489719105 5.730224235859572 0 0 0
2775 4 4 0 16.760279178514725 40.074041388412866 6.745864655054282 0 0 0
2776 4 1 0 17.501598801397254 41.189114135188085 5.039047432574196 0 0 0
2779 4 7 0 16.073072348415877 41.74637959849594 6.0987165203618225 0 0 0
2780 4 8 0 16.11022887080919 38.45320594315711 5.448602593253638 0 0 0
2781 4 3 0 16.19534098744809 38.670708624511306 6.528478447759584 0 0 0
2772 4 7 0 19.83326454047275 40.356149653857095 4.688566294105242 0 0 0
2770 4 5 0 19.352631721930216 40.21083485466472 7.280046411941344 0 0 0
2782 4 4 0 17.058132888252256 37.60492384515094 7.20798693720325 0 0 0
2784 4 5 0 18.08217699962028 37.9951401529027 7.346102611181948 0 0 0
2778 4 9 0 15.70676827647045 41.01419891822064 6.6000263362129585 0 0 0
2783 4 1 0 15.163297729342894 38.63291987197979 6.920315692351917 0 0 0
2764 4 9 0 20.99201241040526 41.94109063946296 8.218562150001947 0 0 0
2765 4 7 0 20.946608153857213 41.245616026963326 7.5584054281428665 0 0 0
2766 4 8 0 19.521851561797735 42.96007348129241 6.059371518079675 0 0 0
2767 4 3 0 19.05375058163555 42.3288425584178 6.83592299691653 0 0 0
2769 4 1 0 17.998337511154965 42.651504686005 6.878821200011592 0 0 0
3105 20 13 0 32.105796478338135 61.404927548865764 2.428356919485914 0 0 0
3096 20 11 0 31.396395819672982 62.36504067822437 5.133316547892418 0 0 0
3099 20 11 0 31.30919423472866 63.176255638256464 6.422290913722088 0 0 0
3100 20 12 0 31.56392901563444 61.298713034753455 5.369442691293595 0 0 0
3101 20 12 0 30.43558630825502 62.41618741551578 4.589992721561153 0 0 0
3102 20 10 0 29.943807473618847 63.00386190106062 7.066007031979511 0 0 0
3103 20 12 0 31.488497338493335 64.24638722377877 6.213279096029439 0 0 0
3104 20 12 0 32.09653914979758 62.855922101756825 7.12827235161883 0 0 0
3095 20 11 0 32.52430503344056 62.88630135573143 4.248129584628568 0 0 0
3097 20 12 0 32.20354862057895 63.804416445199685 3.7235922776095958 0 0 0
3107 20 13 0 29.030476932414803 63.7753276823754 6.777496053892804 0 0 0
3094 20 10 0 32.93262699660636 61.83289918787591 3.2321063723089947 0 0 0
3098 20 12 0 33.3974106142967 63.16415355588314 4.8657874784989765 0 0 0
3106 20 12 0 33.92602517656452 61.35483363823151 3.3059141559520318 0 0 0
2056 3 7 0 27.563413876277593 9.259396735791306 7.7619628159608185 0 0 0
2039 3 1 0 30.066261294450943 9.665193769537877 12.687310815932857 0 0 0
2043 3 8 0 31.238061226754063 8.22536976504707 11.346855580890267 0 0 0
2044 3 3 0 31.351515718345457 9.041042989588574 10.610019545815145 0 0 0
2045 3 4 0 30.13566491108732 9.03448414749605 9.671522802676108 0 0 0
2046 3 1 0 32.24885798183894 8.766614204588976 10.026776234661533 0 0 0
2047 3 5 0 29.69024070934043 8.023669229871354 9.700226475158923 0 0 0
2048 3 9 0 29.147060877594452 9.96576970701672 10.090162643079598 0 0 0
2049 3 7 0 28.4250752780015 9.442895636751473 10.446484657383742 0 0 0
2050 3 8 0 31.07333119482719 8.4478303455389 7.809497803678039 0 0 0
2051 3 3 0 30.565635278276726 9.333075942767133 8.233336584229464 0 0 0
2052 3 4 0 29.38233446018702 9.715313363735413 7.345217834734021 0 0 0
2053 3 1 0 31.313569241622904 10.145813788959755 8.221244125265798 0 0 0
2055 3 9 0 28.340886500695916 8.761881169302287 7.498155889780785 0 0 0
2038 3 4 0 31.639558305981435 10.354300772436009 11.35215527433318 0 0 0
2040 3 5 0 32.70069000402878 10.342203053254012 11.658196659669263 0 0 0
2054 3 5 0 29.00869892918362 10.716010217440957 7.627809255409373 0 0 0
2037 3 3 0 30.768719834430737 10.512888544599786 12.600614898263503 0 0 0
2036 3 8 0 30.14009241548202 11.415160319919854 12.494049919851985 0 0 0
2041 3 9 0 31.448566675602894 11.474057710206806 10.499198608136268 0 0 0
2042 3 7 0 32.06292635392838 11.359527822943049 9.770496295912693 0 0 0
2798 4 5 0 13.741574124556381 34.300957111949245 8.213730770046096 0 0 0
2800 4 7 0 14.55232157918276 33.16646113492689 10.124508075068553 0 0 0
2808 4 7 0 14.304467005064751 30.77567575571013 7.554531438732699 0 0 0
2796 4 4 0 14.72963562464295 33.81946966096395 8.327008118542913 0 0 0
2799 4 9 0 14.620526441811698 32.75480092612607 9.25993899412477 0 0 0
2797 4 1 0 16.738645046712826 34.628106837064884 8.430396295765007 0 0 0
2795 4 3 0 15.739286898713393 34.83806560303828 8.852066284844717 0 0 0
2794 4 8 0 15.839511043112976 34.73384704092393 9.947443987479545 0 0 0
2789 4 4 0 15.306987356659423 36.26234696558071 8.505245408264736 0 0 0
2792 4 9 0 14.326252902440434 36.6833541435349 9.441391004788185 0 0 0
2793 4 7 0 14.23747379263913 37.63189892907297 9.323126220692856 0 0 0
2791 4 5 0 14.859392684579854 36.280391822086706 7.495585780493495 0 0 0
2777 4 5 0 17.156090374420252 40.150738298055956 7.7738156517630355 0 0 0
2788 4 3 0 16.49594466496735 37.223553693971354 8.580506017052237 0 0 0
2790 4 1 0 17.29900990304806 36.776399009779325 9.193563372872722 0 0 0
2760 4 3 0 18.87516475954718 42.12556488691338 9.350987162487035 0 0 0
2762 4 1 0 18.961457566433637 41.03013865530338 9.465156844446007 0 0 0
2787 4 8 0 16.1906639458009 38.13821520908512 9.120075198034769 0 0 0
2752 4 8 0 17.886469709479307 41.60239513134478 11.745937442913883 0 0 0
2748 4 1 0 18.424567399391055 40.818881591839784 14.054495521816545 0 0 0
2759 4 8 0 17.80768302594717 42.33173088426408 9.154455118749127 0 0 0
2753 4 3 0 18.937563997189446 41.93076259066175 11.837730661355266 0 0 0
2755 4 1 0 19.545547458750544 41.009014385934215 11.814131164696386 0 0 0
2743 4 9 0 21.29517882807308 40.842497437374206 13.750972148241265 0 0 0
2744 4 7 0 21.183802654000836 39.913990213709276 13.534075777124459 0 0 0
2761 4 4 0 19.73466284494872 42.60075840643295 8.179119403907846 0 0 0
2763 4 5 0 19.903801809673404 43.68834194729418 8.275531599813784 0 0 0
2749 4 5 0 18.305140140719335 43.3790322820925 13.299174377181005 0 0 0
2754 4 4 0 19.30021718509659 42.813850101686235 10.644770278376269 0 0 0
2757 4 9 0 18.62326199065509 44.057842542116 10.749107485061595 0 0 0
2758 4 7 0 18.884034149626913 44.566550392626006 9.97788587305006 0 0 0
2747 4 4 0 19.13178064537921 42.65728404820808 13.170820015804148 0 0 0
2756 4 5 0 20.39050185989956 42.9912132674479 10.6251633244374 0 0 0
2750 4 9 0 20.353910085814224 43.3824854702438 13.160947898728793 0 0 0
2751 4 7 0 20.41043930976064 43.79383689491642 12.295356839867893 0 0 0
3108 20 12 0 29.73086380755893 62.10077859249108 7.666015803526073 0 0 0
1998 3 5 0 23.708900820440054 4.9015456132054815 20.67595235602544 0 0 0
2011 3 1 0 24.680013159307638 8.465560514638907 17.792279141028025 0 0 0
2021 3 7 0 25.860780290472167 9.050633172299879 16.14040063861369 0 0 0
2006 3 9 0 23.27578339755509 6.694013584886819 18.563664771095382 0 0 0
2007 3 7 0 22.581305603833506 6.825198406500431 19.21332841806387 0 0 0
2003 3 4 0 24.5004713616021 6.8836074478448745 19.256373294279687 0 0 0
2005 3 5 0 25.149954449942367 6.00767445043945 19.07862046144553 0 0 0
2009 3 3 0 25.179514403422594 8.144891680531613 18.724357581172846 0 0 0
2020 3 9 0 26.607368212215423 8.759470076085758 15.611747589455847 0 0 0
2016 3 3 0 27.31442075388778 9.151802412064647 17.87555259253031 0 0 0
2018 3 1 0 26.612162718832096 10.003349053290178 17.92481671751111 0 0 0
2017 3 4 0 27.755381881375627 8.926701431727391 16.430550834952726 0 0 0
2010 3 4 0 26.66306628801876 7.897238140338976 18.454239727311762 0 0 0
2012 3 5 0 26.772253365260507 7.057733508547239 17.744425992887646 0 0 0
2019 3 5 0 28.376334252614217 8.014858337743743 16.368900904757517 0 0 0
2023 3 3 0 28.549747991546802 10.129839319928417 15.925518370459534 0 0 0
2024 3 4 0 29.999385641322714 9.747927561255114 15.633408520177918 0 0 0
2026 3 5 0 30.00913338107697 8.912884501792716 14.910934777445728 0 0 0
2027 3 9 0 30.625029528361377 9.326773244585624 16.836740462107308 0 0 0
2028 3 7 0 30.088256061916343 9.677835023449973 17.551044263050784 0 0 0
2034 3 9 0 32.31410802112094 9.40114741030288 14.086131790007446 0 0 0
2035 3 7 0 31.711929140981574 8.842340790624636 14.582810035684703 0 0 0
2015 3 8 0 28.184987266474362 9.433773186339273 18.49497872052283 0 0 0
2013 3 9 0 27.31586278900001 7.561727485583053 19.669842200367132 0 0 0
2025 3 1 0 28.073026932787833 10.523917536926751 15.009724661960984 0 0 0
2031 3 4 0 31.622419540331347 10.622503778346312 13.864688084494576 0 0 0
2022 3 8 0 28.51792102332946 10.948825002060643 16.666563480690215 0 0 0
2029 3 8 0 31.401333530781535 11.374277583384272 15.878982867129137 0 0 0
2030 3 3 0 30.758753841277073 10.957409193594641 15.082743320641338 0 0 0
2032 3 1 0 30.048738589823216 11.763490794648176 14.825044829541369 0 0 0
2033 3 5 0 32.3645921666637 11.429762073990263 13.728260273383063 0 0 0
2746 4 3 0 19.074266330931522 41.665245271355865 14.341246854286153 0 0 0
2745 4 8 0 18.55088830428323 42.14517778270316 15.187798641335768 0 0 0
2742 4 5 0 20.206770096444714 40.13779742701097 15.335877764306 0 0 0
2735 4 5 0 21.504960120600096 40.41191614758156 17.201888564998768 0 0 0
2740 4 4 0 20.414174448061182 41.10023500818068 14.835297996408489 0 0 0
2733 4 4 0 21.10028160217467 41.43931832582478 17.242214405847335 0 0 0
2736 4 9 0 19.76913046825278 41.385796361761614 17.735500577210097 0 0 0
2737 4 7 0 19.501492466951227 42.29742103185731 17.873459527082748 0 0 0
2731 4 8 0 22.302104713540405 41.62327668424155 19.028335481132626 0 0 0
2719 4 4 0 21.58876041287077 45.87452755486852 19.532181753513147 0 0 0
2721 4 5 0 20.508344156529816 45.69520032131234 19.677196807169935 0 0 0
2724 4 8 0 23.092567320846488 44.30512307179909 19.559647837502837 0 0 0
2725 4 3 0 22.250336560685522 44.637058484352664 18.926122956309815 0 0 0
2726 4 4 0 21.253614542411473 43.492386999707335 18.753266662225684 0 0 0
2727 4 1 0 22.689911125029532 44.9011608283014 17.947293880510784 0 0 0
2728 4 5 0 20.4456164352188 43.81922476419227 18.07471524581591 0 0 0
2729 4 9 0 20.69824709799896 43.157120408741406 20.017155353269583 0 0 0
2730 4 7 0 21.398629502402702 42.71926249243104 20.506305595135526 0 0 0
2732 4 3 0 21.97255181244685 42.264226531743944 18.19090959745706 0 0 0
2734 4 1 0 22.89853156684149 42.57323484251944 17.673945092630607 0 0 0
2738 4 8 0 22.137242396281327 42.223817556521844 15.503107995473288 0 0 0
2739 4 3 0 21.100011704327972 42.03571030188558 15.833782769455421 0 0 0
2741 4 1 0 20.60136490829762 43.021150627733554 15.840628444350202 0 0 0
2722 4 9 0 21.757102868481642 46.96515763865554 18.63875100174744 0 0 0
2723 4 7 0 20.87308433338061 47.22567030213646 18.3697852387256 0 0 0
2709 4 7 0 22.607228680037814 51.11976908310311 20.892837664990303 0 0 0
2589 4 9 0 30.812010213485248 52.16196449093522 20.468356820995588 0 0 0
2590 4 7 0 31.074711310742867 52.85308821556625 19.856132463573182 0 0 0
2673 4 9 0 24.84198876589834 58.28608093991046 18.59949204440377 0 0 0
2679 4 5 0 24.570104160479662 55.993988484542534 19.999534676162213 0 0 0
2672 4 5 0 26.835920878066336 57.763305576804484 18.63918456086503 0 0 0
2680 4 9 0 26.513307204371067 55.449349731951784 19.59372948216115 0 0 0
2681 4 7 0 26.260842833538085 54.52384559643581 19.55759253378282 0 0 0
2670 4 4 0 26.09155271137056 58.27731305629412 19.27293154997688 0 0 0
2674 4 7 0 25.024608717986812 58.5931670276107 17.708314663339515 0 0 0
2665 4 5 0 28.568728799890078 58.97741341589052 19.426872663482246 0 0 0
2601 4 1 0 28.968033076663044 56.40576219390599 20.359603838930347 0 0 0
2597 4 7 0 31.374161599838217 55.421719801040005 19.38116462494425 0 0 0
2596 4 9 0 30.668053359054028 54.875211822312195 19.733962886274856 0 0 0
2668 4 8 0 25.941460298031675 60.40151631109587 18.876483884285555 0 0 0
2661 4 8 0 27.959076506941752 61.93446390236352 20.016620748131132 0 0 0
2666 4 9 0 28.183790326823143 60.26881943662659 17.8646025782674 0 0 0
2667 4 7 0 27.690834282203316 61.08302197925286 17.74064371043312 0 0 0
2669 4 3 0 26.532132060904594 59.72073291936303 19.51537005075079 0 0 0
2663 4 4 0 28.02005935037451 59.91517057094675 19.229935120550145 0 0 0
2662 4 3 0 28.58092152040244 61.02670068975839 20.11678566147173 0 0 0
2660 4 7 0 29.312533186724103 62.44648292008748 18.344140634565896 0 0 0
2649 4 4 0 30.64979179022897 62.88416541809085 21.69577292851821 0 0 0
2651 4 5 0 29.714474920128836 63.345340121522014 21.33056270776478 0 0 0
2655 4 3 0 30.90452978422289 61.554018022018795 20.984249085382775 0 0 0
2656 4 4 0 30.030233398268475 61.34726446847238 19.746091238331182 0 0 0
2658 4 5 0 30.451301180591507 60.5074193367354 19.164729146455308 0 0 0
2659 4 9 0 30.061665599685124 62.51639113429632 18.940422188369897 0 0 0
2657 4 1 0 31.967011287938227 61.505861962069105 20.685915627073335 0 0 0
2652 4 9 0 31.745483810590947 63.744789348263744 21.41771789558197 0 0 0
2653 4 7 0 31.47346049889156 64.28582303929313 20.672678603813786 0 0 0
1993 3 7 0 21.53152100078349 3.608825955986231 21.416673999127063 0 0 0
1992 3 9 0 21.742188579087937 3.850091581246082 22.321688135352524 0 0 0
1994 3 8 0 23.693930306429994 4.987201393911712 23.415686852896656 0 0 0
2000 3 7 0 25.491543984083314 4.272915412131991 21.535164259672044 0 0 0
1999 3 9 0 25.44683073246648 5.209047754308183 21.743181347111094 0 0 0
692 1 5 0 6.307530262025858 8.59976849757207 26.901816390479688 0 0 0
685 1 5 0 7.348004408695792 10.66589453366814 26.81452948935786 0 0 0
694 1 7 0 3.8301142233028123 8.202161180637995 26.541458996366856 0 0 0
700 1 9 0 3.4935512471417365 6.228737407855566 27.644362543308237 0 0 0
702 1 7 0 3.4735983764274256 5.736515692353154 26.82041032229479 0 0 0
693 1 9 0 4.334229927647785 9.014254872101084 26.452366652840098 0 0 0
1951 3 7 0 9.12366725168892 8.660886171261208 26.267168375938727 0 0 0
1965 3 7 0 13.083331977720938 10.855465232870461 22.32626365660557 0 0 0
1964 3 9 0 13.745783959758695 11.29304979890405 22.86597419432876 0 0 0
1966 3 8 0 14.443269532368232 9.234203797305558 21.788955107172892 0 0 0
1967 3 3 0 14.940402136760255 9.216723537386319 22.775537998739782 0 0 0
1969 3 1 0 14.75305304766675 8.210377799030669 23.191531722474718 0 0 0
1959 3 8 0 12.63280302827313 8.946215212324889 23.93208646129804 0 0 0
1950 3 9 0 9.64847601998282 9.464216189310864 26.296433228323927 0 0 0
1949 3 5 0 11.30312885496293 8.286514366583193 25.925097741778984 0 0 0
1961 3 4 0 14.319133872246233 10.279871180239166 23.679804560168765 0 0 0
1958 3 7 0 10.749140637014673 9.982472486322331 24.335716481304093 0 0 0
1957 3 9 0 11.17350529950666 10.842931730676856 24.37013158509163 0 0 0
1960 3 3 0 13.238800541167995 9.636144042823496 24.54678899265132 0 0 0
1963 3 5 0 15.0904818680657 10.728332272069022 24.33154801044004 0 0 0
1956 3 5 0 12.853963050235224 11.64705946743767 25.250602753786435 0 0 0
1954 3 4 0 12.323441883866437 10.679784889634938 25.186934073496577 0 0 0
1962 3 1 0 13.714257612658988 9.01494539028041 25.327235029528328 0 0 0
1953 3 3 0 11.899456189322494 10.27318195613155 26.600902523347518 0 0 0
1971 3 9 0 16.808000136659803 8.991647215657428 21.29433158712415 0 0 0
1972 3 7 0 16.17156862767021 8.314981155720549 21.0522091019411 0 0 0
1985 3 9 0 19.237780735539534 6.776704730042324 21.93822660361994 0 0 0
1986 3 7 0 19.658239067048964 6.1505641647453055 21.344326927190654 0 0 0
1970 3 5 0 16.693474879350372 10.496376496568647 22.702635531714918 0 0 0
1977 3 5 0 19.007836029740712 9.315565586364674 22.646231596318486 0 0 0
1979 3 7 0 17.991112014742974 10.392341511082217 24.756553321989642 0 0 0
1968 3 4 0 16.441924945297618 9.42576605086867 22.595891610107376 0 0 0
1973 3 8 0 17.08875146748975 7.5292621183804345 23.40670856152722 0 0 0
1978 3 9 0 18.8699201021592 10.059192616507229 24.560788405667612 0 0 0
1974 3 3 0 17.206920346502653 8.604475252919087 23.63136680995076 0 0 0
1976 3 1 0 16.77080251674088 8.758415316169227 24.63485231916974 0 0 0
1975 3 4 0 18.687361130410007 8.985336347858329 23.650478943336957 0 0 0
1984 3 5 0 20.96976283495097 7.770413971337496 22.471705667300085 0 0 0
1980 3 8 0 18.93764755153136 7.083332201292143 24.67637127561431 0 0 0
1981 3 3 0 19.54674196189637 7.804448108114619 24.102099478265597 0 0 0
1982 3 4 0 20.21267970029769 7.101239994331972 22.91917052629936 0 0 0
1983 3 1 0 20.323243217736586 8.164805584584636 24.80072891968123 0 0 0
1987 3 8 0 20.109119318777672 5.0574324458698445 23.626633349868484 0 0 0
1995 3 3 0 23.27453321259982 5.668372577824188 22.653461167302684 0 0 0
2008 3 8 0 25.05560994595625 8.978958583548959 19.438378942821405 0 0 0
1988 3 3 0 20.880713012477216 5.813911419963076 23.396458588519554 0 0 0
1990 3 1 0 21.422952149797513 5.994456745213952 24.342053532948494 0 0 0
1989 3 4 0 21.835126190490065 5.266673692103863 22.337457464860652 0 0 0
1997 3 1 0 23.304259291149204 6.680556404226757 23.096066281335816 0 0 0
1991 3 5 0 21.55072705042182 5.655197871550352 21.34298422367546 0 0 0
1996 3 4 0 24.135403107378163 5.625357817507845 21.393518463998614 0 0 0
2001 3 8 0 24.992988329239676 7.603997195133426 21.250720337581438 0 0 0
2002 3 3 0 24.208716456077013 7.008042807332268 20.750412956659737 0 0 0
2004 3 1 0 23.25955573860969 7.553871169641608 20.899272011204733 0 0 0
2014 3 7 0 26.78479992717211 7.947105690353719 20.370580711209204 0 0 0
686 1 9 0 5.691199903740227 11.572560527487639 25.997354996738398 0 0 0
687 1 7 0 6.234987431747137 12.193292415936616 25.50687553182248 0 0 0
674 1 8 0 9.058407926109476 12.274787834989054 25.878705468185572 0 0 0
677 1 1 0 7.947816045136001 13.6502309927545 25.88380718480555 0 0 0
675 1 3 0 8.778164597819199 13.182720536689379 26.44260124726409 0 0 0
654 1 3 0 11.431379104721323 18.06133253444976 26.828785087571042 0 0 0
661 1 3 0 11.2768671109586 16.754743674040622 24.67503817585018 0 0 0
663 1 1 0 10.18666204904927 16.882785261817563 24.797541625072295 0 0 0
668 1 3 0 10.527329336521268 14.379417979873043 25.10093911456215 0 0 0
669 1 4 0 9.965753648415657 14.140384201221758 26.50184555649103 0 0 0
670 1 1 0 9.730879004720578 14.745122432026994 24.428444302780274 0 0 0
653 1 8 0 10.327347901958513 18.069796271785886 26.793551690554278 0 0 0
655 1 4 0 12.000079799137179 17.87910185370119 25.42067097019915 0 0 0
658 1 9 0 13.387750146355474 17.587512670836425 25.49689833656745 0 0 0
660 1 8 0 11.46677822861411 16.85591885750912 23.591516445680323 0 0 0
662 1 4 0 11.704675234495268 15.354995528673049 25.13263759233275 0 0 0
664 1 5 0 12.116598728132043 15.38763349524536 26.15603213196881 0 0 0
665 1 9 0 12.714017859593271 14.871727030653654 24.258669348225133 0 0 0
666 1 7 0 12.94805256273928 13.998537202859396 24.581756620597016 0 0 0
667 1 8 0 10.864335651927327 13.421792265392792 24.66881811961708 0 0 0
659 1 7 0 13.508162879780782 16.751894790242766 25.039922178601284 0 0 0
1895 3 7 0 16.07422276445427 16.796890036558633 26.249601177710577 0 0 0
657 1 5 0 11.867148785769789 18.819697358165644 24.85669617856949 0 0 0
650 1 5 0 12.78935488620935 19.7458045284683 26.907137395986474 0 0 0
2470 4 9 0 46.60303258963309 39.76664625231447 26.730009891551827 0 0 0
2471 4 7 0 47.08053909753402 39.70443750579035 25.899546169669417 0 0 0
2473 4 3 0 48.802884235497324 38.88077101031411 27.070741233234266 0 0 0
2472 4 8 0 48.56270785322379 38.435209352261445 26.08884639122982 0 0 0
2512 4 9 0 50.397719965034966 42.06547411144462 23.668000719527928 0 0 0
2476 4 5 0 49.25676608576216 40.97421663906498 26.74829150344272 0 0 0
2478 4 7 0 51.48891648036293 39.69444106596786 26.03418015901084 0 0 0
2474 4 4 0 49.799163879842624 40.02232740383706 26.885943370349636 0 0 0
2477 4 9 0 50.58096273657458 39.76269332921221 25.729686263847462 0 0 0
2513 4 7 0 50.021520228463686 42.09548637851163 22.785255198141968 0 0 0
2480 4 3 0 50.718950815692125 40.128836190298244 28.100351251074425 0 0 0
2483 4 5 0 51.5071774960984 41.83194455863984 27.017593567168653 0 0 0
2479 4 8 0 51.37849850671191 39.24384549848694 28.150435489548723 0 0 0
2481 4 4 0 51.56579187311158 41.39679762445041 28.03121082846377 0 0 0
2484 4 9 0 52.9156017477289 41.05777499048293 28.312050957401915 0 0 0
2485 4 7 0 53.33123548730165 40.89983505065059 27.46124331205384 0 0 0
2714 4 5 0 20.60071612099302 47.62000032906985 21.045678079436797 0 0 0
2720 4 1 0 23.313667189766317 46.43179008044691 20.72132438131277 0 0 0
2718 4 3 0 22.241426086492528 46.21177772194387 20.872406786933425 0 0 0
2717 4 8 0 22.200371602118373 45.331502055025716 21.53919445134088 0 0 0
2715 4 9 0 21.293991910766312 47.05489543389107 22.906668539166514 0 0 0
2712 4 4 0 21.55618533854265 47.395912755937076 21.553266871851424 0 0 0
2716 4 7 0 21.831382953344892 46.28156449156574 23.09350740468048 0 0 0
2541 4 7 0 44.65767855525656 47.14024236447906 25.895685867129874 0 0 0
2520 4 7 0 45.86784492812907 43.40639212106221 23.85308497647455 0 0 0
2507 4 8 0 51.76183402440461 43.94666365620493 23.19719402562728 0 0 0
2519 4 9 0 46.44794006444398 42.64150626963745 23.85745798270777 0 0 0
2508 4 3 0 51.04915151783372 44.35925996130355 23.933637208672828 0 0 0
2509 4 4 0 50.0219765735061 43.28221659242525 24.29470514647996 0 0 0
2510 4 1 0 50.5668532797066 45.21479036895081 23.428612974442427 0 0 0
2511 4 5 0 50.01059731040922 43.125910995316886 25.387187478705965 0 0 0
2514 4 8 0 48.486861363059866 43.37405161926285 22.765692056108204 0 0 0
2515 4 3 0 48.618283799477936 43.66528356130295 23.823182239756086 0 0 0
2516 4 4 0 47.550398498131926 42.991016060868574 24.68065780931269 0 0 0
2517 4 1 0 48.47496373002626 44.76003358906538 23.86022973985802 0 0 0
2518 4 5 0 47.95676656280139 42.074177025365266 25.14247736765217 0 0 0
2521 4 8 0 46.39050576476631 44.697823740197556 25.320988526498617 0 0 0
2522 4 3 0 47.07639709476236 43.955028356381554 25.764535440637854 0 0 0
2524 4 1 0 47.92955507655893 44.52808133344992 26.16794994262988 0 0 0
2503 4 1 0 49.93516252974165 45.75174882806967 25.768167247399248 0 0 0
2496 4 1 0 50.04891669328862 44.175660769714966 27.46443924646826 0 0 0
2490 4 5 0 52.5869586248291 43.63599949786518 28.112652301361102 0 0 0
2488 4 4 0 51.722783296331784 43.783685778405925 28.783760976075378 0 0 0
2502 4 4 0 51.82272688445893 44.852792186373165 25.157003073632477 0 0 0
2505 4 9 0 53.037332117357415 45.43842561664536 24.71264083721008 0 0 0
2506 4 7 0 53.329341844542995 44.90864767038757 23.96726613966619 0 0 0
2504 4 5 0 52.06502606950202 43.99524841503281 25.808018599040132 0 0 0
2501 4 3 0 51.01686744254326 45.90720703662498 25.923124417093792 0 0 0
2500 4 8 0 51.23061316946773 46.90321256893312 25.495500635496708 0 0 0
2494 4 3 0 50.70114032094876 44.73643593197408 28.155983720607754 0 0 0
2495 4 4 0 51.32327806503604 45.93348003684328 27.423451713428324 0 0 0
2497 4 5 0 50.885327905169724 46.85590230243493 27.844483885807527 0 0 0
2498 4 9 0 52.72867801714413 45.98848949607771 27.62131403410203 0 0 0
2499 4 7 0 53.108348561621426 45.36452675078755 26.998343780957672 0 0 0
2708 4 9 0 21.698253933320267 50.847802473524446 21.039231474279006 0 0 0
2700 4 5 0 20.89905945317305 51.89250928204318 23.313008122758053 0 0 0
2698 4 4 0 21.65717158364431 51.468664773876704 23.995759460602244 0 0 0
2701 4 9 0 20.98920015821586 50.84553259084199 25.08212652270903 0 0 0
2702 4 7 0 20.091134288228023 51.18482781713799 25.06921166416732 0 0 0
2707 4 5 0 20.712741931856073 49.601840288258074 22.356958425283047 0 0 0
2697 4 3 0 22.544616686579868 52.589140440345744 24.535289474799317 0 0 0
2694 4 9 0 21.765953872129472 54.7296173024473 23.787721066366572 0 0 0
2696 4 8 0 22.099735331516303 53.00199835289757 25.458513786054432 0 0 0
2695 4 7 0 20.94913205215727 54.46878671418956 23.356039747513165 0 0 0
2691 4 4 0 22.704614461837107 53.70309210316427 23.502024253460334 0 0 0
2713 4 1 0 22.783220012167487 48.820491195355245 20.473875187509464 0 0 0
2693 4 5 0 22.509953239708047 53.30634666863895 22.489342400124077 0 0 0
2703 4 8 0 22.756016316249966 49.607124008301774 23.964534799771076 0 0 0
2704 4 3 0 22.496991291433687 50.421800043507034 23.264346677662733 0 0 0
2705 4 4 0 21.744710313414636 49.8610461687712 22.059267682336113 0 0 0
2706 4 1 0 23.454732321650063 50.859796540834324 22.929637993855593 0 0 0
2710 4 8 0 23.38435725157191 48.43424382211348 22.087068753338368 0 0 0
2711 4 3 0 22.460548146484562 48.62672171352558 21.51254231932669 0 0 0
2699 4 1 0 23.531448015669362 52.18787679885845 24.828518958409067 0 0 0
2692 4 1 0 24.855383646326935 53.48475250236394 23.35739227062627 0 0 0
2581 4 5 0 31.923471107586703 53.03277694549058 24.11971072684744 0 0 0
2588 4 5 0 30.611662943850483 51.95858181549422 22.49431410830065 0 0 0
2586 4 4 0 30.9836462857546 52.70467356551213 21.769260598543077 0 0 0