LAMMPS data file via write_data, version 23 Jun 2022, timestep = 500000

2991 atoms
18 atom types
3046 bonds
16 bond types
5801 angles
31 angle types

30.0294876907124 60.077512309288345 xlo xhi
27.114987690712503 57.1630123092885 ylo yhi
29.998489690712404 60.04651430928835 zlo zhi

Masses

1 1.00794
2 1.00794
3 12.0107
4 12.0107
5 1.00794
6 1.00794
7 1.00794
8 1.00794
9 15.9994
10 12.0107
11 12.0107
12 1.00794
13 15.9994
14 15.9994
15 12.0107
16 12.0107
17 1.00794
18 15.9994

Pair Coeffs # lj/cut

1 0.038 2.44997
2 0.038 2.44997
3 0.039 3.87541
4 0.039 3.87541
5 0.038 2.44997
6 0.038 2.44997
7 0 0
8 0.038 2.44997
9 0.228 2.85978
10 0.148 3.61705
11 0.039 3.87541
12 0.038 2.44997
13 0.228 2.85978
14 0.228 2.85978
15 0.148 3.61705
16 0.148 3.61705
17 0 0
18 0.228 2.85978

Bond Coeffs # harmonic

1 340.618 1.105
2 340.618 1.105
3 322.716 1.526
4 340.618 1.105
5 340.618 1.105
6 340.618 1.105
7 384 1.42
8 540.634 0.96
9 283.092 1.52
10 340.618 1.105
11 615.322 1.23
12 322.716 1.526
13 340.618 1.105
14 384 1.42
15 540.634 0.96
16 384 1.42

Angle Coeffs # harmonic

1 39.5 106.4
2 44.4 110
3 39.5 106.4
4 44.4 110
5 39.5 106.4
6 46.6 110.5
7 44.4 110
8 44.4 110
9 70 109.5
10 46.6 110.5
11 44.4 110
12 58.5 106
13 39.5 106.4
14 57 109.5
15 57 109.5
16 46.6 110.5
17 45 109.5
18 50 120
19 68 120
20 46.6 110.5
21 44.4 110
22 55 120
23 39.5 106.4
24 70 109.5
25 57 109.5
26 70 109.5
27 57 109.5
28 80 109.5
29 70 106
30 80 109.5
31 58.5 106

Atoms # full

1913 3 1 0 33.89233058347515 31.166090589296598 32.35894691642787 1 1 0
1904 3 3 0 34.84947997476263 28.744069327588363 31.152118974589747 1 1 0
1906 3 1 0 33.79137739776142 29.014988764502263 31.34254781348744 1 1 0
2988 12 12 0 31.716231826589482 27.664451587614348 32.140815460554606 1 1 0
2982 12 16 0 31.07720727071504 27.413101262654475 32.886739299928415 1 1 0
1911 3 3 0 35.0086520289609 31.050508858530325 32.39385630119032 1 1 0
1903 3 8 0 34.95248125320228 27.910298113098882 31.84863189764347 1 1 0
2561 4 9 0 34.59847299109432 27.79798615966573 35.26044947451057 0 1 0
2976 12 11 0 31.076939321024817 27.7473204337698 35.41776965748955 1 1 0
1910 3 8 0 35.29506861084443 30.7962160320798 33.453494176763776 1 1 0
1905 3 4 0 35.723146972174966 29.938209661768006 31.564778969068243 1 1 0
2562 4 7 0 33.82160473008126 27.271042289145516 35.485866677021775 0 1 0
1912 3 4 0 35.56499931520211 32.49856198744332 32.099087830369356 1 1 0
1938 3 8 0 31.031156641510748 28.656376662608988 30.652409214058583 1 1 0
1924 3 8 0 33.518169642756106 31.16981848705338 30.132002758457865 1 1 0
1915 3 14 0 35.60408931012454 33.18234293504272 33.416470757431405 1 1 0
1918 3 3 0 34.80224301291456 33.333949066251876 31.081838660079526 1 1 0
1920 3 1 0 33.73710972763868 33.24009930968796 31.33324460828222 1 1 0
1935 3 5 0 30.963314027728003 31.156175427249508 30.900352744646806 1 1 0
1933 3 4 0 30.429070875674675 30.704911916371927 30.081664280429386 1 1 0
1939 3 3 0 30.116992772173862 29.272152916974157 30.670442390114456 1 1 0
1943 3 14 0 30.151941397345855 28.512128016434417 33.07652939012581 1 1 0
2984 12 12 0 32.67138849111946 27.478093985056724 34.23988483327177 1 1 0
1907 3 5 0 36.12432888239973 30.416017980445535 30.714133737203458 1 1 0
1908 3 9 0 36.83841290982228 29.33234988113347 32.26044271517511 1 1 0
1914 3 5 0 36.51392585488323 32.37452795358534 31.677543241952595 1 1 0
2845 3 12 0 37.064364106104954 29.97605792615399 34.833850534945284 0 2 2
2839 3 16 0 36.722768546457964 33.1377988490295 34.36517823089064 0 2 2
2851 3 12 0 36.15611547824682 33.20171704687117 35.30118465956797 0 2 2
2841 3 11 0 37.66804781961363 30.793762809528157 35.156514047154474 0 2 2
1941 3 1 0 59.449896892562 28.64784998398201 60.010511032788074 0 1 -1
1229 2 8 0 32.65634861337988 34.05840784909274 35.58251935572447 1 0 0
1917 3 8 0 35.080390754935365 34.4027713246182 31.05945627115789 1 1 0
448 1 14 0 37.2889860809422 34.43735767683722 34.28824019872693 0 0 0
2980 12 12 0 31.272642214433816 28.911111192431683 35.37683609986564 1 1 0
1227 2 9 0 33.507440308611535 32.049841941201876 36.22616704091286 1 0 0
2846 3 12 0 36.994828006249044 31.103933720626625 36.00486069165561 0 2 2
2556 4 8 0 36.075479748049716 27.849544938191862 36.952480607612245 0 1 0
1232 2 1 0 33.65575981140226 34.92595661137114 36.68647109848487 1 0 0
1230 2 3 0 32.90065341731634 34.19983005903788 36.67431912594547 1 0 0
1909 3 7 0 36.640511758895045 28.49050494014968 32.63213494811069 1 1 0
2840 3 11 0 37.8887526107341 31.936449866481674 34.15018988861754 0 2 2
2843 3 12 0 37.862065075998196 31.504824890089047 33.08574867665984 0 2 2
2842 3 12 0 38.93036040288951 32.3449173902223 34.186532880063424 0 2 2
2849 3 12 0 39.36630216723738 29.635830424385674 34.54995951977542 0 2 2
2681 4 7 0 40.58790630174755 30.84465858524604 31.613154598632445 0 1 0
2680 4 9 0 39.849872627445556 30.230166715391945 31.525021886122584 0 1 0
2686 4 5 0 38.869597155390466 32.39363025553211 31.53525670347656 0 1 0
2692 4 1 0 41.28930942125163 32.506553212006736 30.904839315686626 0 1 0
2684 4 4 0 39.220210597028846 32.75225675985182 30.540703511029022 0 1 0
2554 4 14 0 38.72656484799893 27.900340003990276 35.85977226102822 0 1 0
2844 3 11 0 38.95654750086118 30.185856398582008 35.495665418269155 0 2 2
2677 4 4 0 39.61878055083352 30.205720719959576 30.143898893703792 0 1 0
2700 4 5 0 41.91839797765802 32.63870179952745 32.84274652782162 0 1 0
2708 4 9 0 43.26520421158896 30.971877003187835 31.953460612811263 0 1 0
2705 4 4 0 44.32652538434611 31.90999836253966 31.673958692901596 0 1 0
1742 3 8 0 43.947542060301224 27.460907777106108 32.57808144744993 0 1 0
699 1 5 0 43.19084246694851 31.140716463330712 34.63958079446343 0 0 1
698 1 1 0 44.62082697177716 29.961573202454872 37.25846458483365 0 0 1
2690 4 3 0 40.58317415576502 33.297255058963856 30.660384932168423 0 1 0
2693 4 5 0 39.97630135685367 33.50539292311692 32.621478136039 0 1 0
2687 4 14 0 38.30579430058823 33.775518224535 30.247328453991695 0 1 0
2691 4 4 0 40.434619063923535 34.19507942749215 31.847616049099997 0 1 0
447 1 5 0 39.25799083233309 34.29916895987418 34.76456753414716 0 0 0
2704 4 3 0 43.925120486387065 33.24094165608088 32.38611667128902 0 1 0
2698 4 4 0 42.505430646286875 33.568070955429526 32.7975074742624 0 1 0
2702 4 7 0 41.98886120366977 34.54697179867481 34.29258072472079 0 1 0
2701 4 9 0 42.70618097849062 33.93735792373086 34.071700374701024 0 1 0
2848 3 12 0 39.741763486633154 30.957240169716286 35.81406431960063 0 2 2
2847 3 16 0 38.8208329292865 29.08914788445026 36.61518105780373 0 2 2
697 1 4 0 43.29106932695237 30.541909608612816 35.57106846532041 0 0 1
700 1 9 0 42.09573903370254 30.517823888566923 36.24048634298189 0 0 1
696 1 3 0 44.42185463045122 30.778506058902124 36.588063340381254 0 0 1
701 1 6 0 43.58927376765533 29.558722016184515 35.07075916072149 0 0 1
702 1 7 0 41.71770652326697 31.358624592725928 36.103976438787484 0 0 1
695 1 8 0 43.88718308444221 31.563992380015904 37.110046303254016 0 0 1
454 1 5 0 39.22016462457105 33.183591408418074 36.78826125325047 0 0 0
462 1 9 0 41.73668899661328 34.17110488972303 36.87974921969528 0 0 0
463 1 7 0 41.47089135160416 35.01183174391969 36.50187106742092 0 0 0
2679 4 5 0 38.821547181609844 29.603173133142366 60.01240620098514 0 1 -1
2709 4 7 0 43.458628664084756 30.71687313976335 32.83408471787635 0 1 0
690 1 4 0 45.63922448297084 31.26570294252758 35.91124452098171 0 0 1
692 1 5 0 45.51420888982154 32.24415614257501 35.5212822497328 0 0 1
2703 4 8 0 44.59957440850544 33.59111036948785 33.16371823517334 0 1 0
1734 3 7 0 39.103469070343664 57.041001664377916 32.86094185231406 0 0 0
1509 3 14 0 40.001019215445616 28.868745770642132 37.35484811433736 0 0 0
2853 3 12 0 37.9938900729997 29.129588434627024 37.31653847300155 0 2 2
452 1 4 0 38.85986133367854 34.01119850165935 37.429062307238205 0 0 0
693 1 9 0 46.51970230164753 31.659534513657256 37.03464601230502 0 0 1
2678 4 1 0 41.480772331479095 29.20099646566119 30.469150662608072 0 1 0
2707 4 5 0 45.272680165227655 31.477048044498268 32.15251121946751 0 1 0
684 1 1 0 47.39567791095838 29.187694440175306 32.97519118035187 0 0 1
691 1 1 0 45.661158161588745 30.322830362882243 33.91958790902713 0 0 1
689 1 3 0 46.20950527094689 30.301124959757352 34.935299827269844 0 0 1
683 1 4 0 47.68810460442015 30.42307562768465 34.63187350363459 0 0 1
685 1 5 0 47.773127762387276 31.41541264613827 34.16715066814373 0 0 1
682 1 3 0 48.17435046086261 29.343408409592495 33.77079294028769 0 0 1
681 1 8 0 48.210089991492765 28.41932622366135 34.3850052874437 0 0 1
677 1 1 0 48.593451083000495 31.431723094091716 32.04390899599903 0 0 1
686 1 9 0 48.502680639651715 30.44017985159178 35.78496091641694 0 0 1
688 1 8 0 45.97605360111528 29.34079096716751 35.39208221067273 0 0 1
674 1 8 0 48.35207781764392 29.908022224240845 31.18001144174656 0 0 1
678 1 5 0 50.35114167449491 30.006590788198217 33.71291941321427 0 0 1
676 1 4 0 49.508349068720456 29.57711982009136 32.986799880865924 0 0 1
675 1 3 0 49.08054119522966 30.43353761791967 31.83220893181016 0 0 1
679 1 9 0 50.014220445315104 28.35114560442159 32.529674979123094 0 0 1
671 1 5 0 51.207845038183066 30.646466839037686 31.198671712024346 0 0 1
931 2 1 0 49.928156868282656 32.72329710058474 35.25912677934357 0 0 1
669 1 4 0 50.20481079570527 30.757308086412497 30.804556252268366 0 0 1
672 1 14 0 49.82732700077685 32.111489058647415 30.578590566041292 0 0 1
929 2 3 0 50.370570103426914 33.40366597963879 36.05674869801888 0 0 1
687 1 7 0 49.303852347295425 29.92568084146842 35.59000472201966 0 0 1
923 2 4 0 51.86908513664665 33.13017990590881 36.32979377089481 0 0 1
680 1 7 0 49.95624330430318 27.670601175575314 33.20725450029464 0 0 1
155 1 7 0 51.31450918215816 29.329655112186433 35.11396559311169 0 1 0
941 2 7 0 49.077818494808405 33.0408528424583 33.607321774985735 0 0 1
2926 8 12 0 51.74662019021072 32.29780088555639 30.046763740816438 1 6 -2
945 2 1 0 46.95680971483367 33.878320228818 32.5066039474313 0 0 1
936 2 3 0 48.878500456837344 35.0216150727991 34.8863473442032 0 0 1
930 2 4 0 50.20877583511728 34.87551059165489 35.585143903265944 0 0 1
938 2 1 0 48.14875723292815 34.21276950728396 35.20739317467585 0 0 1
940 2 9 0 49.1825813169344 33.67718206756936 32.90842836478881 0 0 1
1748 3 7 0 44.742936553305206 56.80854017158018 34.48776367844006 0 0 0
928 2 8 0 49.734694538088476 33.15450826069983 36.917275219031595 0 0 1
151 1 4 0 51.81205408292032 27.715334733099265 36.067963816239384 0 1 0
154 1 9 0 50.8904638118359 28.682278450586335 35.660964259260155 0 1 0
926 2 9 0 52.1433391516201 32.504801743294124 37.60886092838958 0 0 1
927 2 7 0 53.01515569337408 32.06538013986036 37.56660171799688 0 0 1
934 2 7 0 51.00094345023737 36.51196073898588 36.3548043555706 0 0 1
933 2 9 0 50.41098095680759 35.77689567676042 36.656440516618844 0 0 1
156 1 8 0 50.225140865596 57.038127848080656 37.14150353444137 0 0 0
153 1 5 0 52.3060204032828 27.39682652105523 35.15835930274446 0 1 0
1749 3 8 0 46.15996142513194 57.156627720478724 31.43132069924431 0 0 0
161 1 9 0 50.84184093664223 56.091583667380405 34.33617057193397 0 0 0
1755 3 7 0 49.14966962928128 56.51937381013535 32.380435236250214 0 0 0
162 1 7 0 51.75654139846462 56.35437765185077 34.21455226057561 0 0 0
157 1 3 0 51.02357595238962 56.64069854930632 36.64832036461573 0 0 0
694 1 7 0 45.90392928051995 31.979559139279594 37.7458630173793 0 0 1
2921 8 12 0 51.68442224677493 34.38571009193613 31.437779371987478 1 6 -2
2916 8 11 0 51.79714043622536 34.6574088024358 30.41497309134955 1 6 -2
2914 8 16 0 50.80027375062224 32.6796811004431 59.783334155099496 1 6 -3
2981 12 12 0 60.01163394595769 27.51530901979304 35.40455884281914 0 1 0
921 2 8 0 51.908682151791496 31.267141125278382 35.44808847212804 0 0 1
924 2 1 0 52.07332341248997 32.611147647622126 34.23840812804661 0 0 1
922 2 3 0 52.362479111750886 32.254403382651134 35.24368419182869 0 0 1
150 1 3 0 52.736673460776274 28.43639644921179 37.17857406207149 0 1 0
925 2 5 0 52.40261993848766 34.1016451062753 36.214978902207896 0 0 1
917 2 1 0 53.714932876055144 33.19061358416781 33.59312620120567 0 0 1
146 1 5 0 54.013202617151585 28.39410758858795 35.67375454345212 0 1 0
916 2 4 0 53.92834088897028 32.02422758480437 35.34104723759396 0 0 1
914 2 8 0 54.42111989190707 31.535694475807002 33.41366189356974 0 0 1
915 2 3 0 54.43158041700366 32.4145886645811 33.975857791309046 0 0 1
918 2 5 0 54.373155412299255 32.7847456382418 36.048722061719246 0 0 1
919 2 14 0 54.36734001662875 30.668121514677193 35.6146714026681 0 0 1
1942 3 5 0 59.83784170572878 30.41947861840688 32.44991336638931 0 1 0
1940 3 4 0 59.63656360401724 29.401443877965697 32.13480725542235 0 1 0
911 2 5 0 56.615555640671175 32.28110648609557 33.55111957145546 0 0 1
1946 3 3 0 58.1728126377786 29.11107499882621 32.20555417809572 0 1 0
1948 3 1 0 57.5830679119802 29.86264430254854 32.744013944641075 0 1 0
1945 3 8 0 57.78515969424589 29.115523211273956 31.216264680161334 0 1 0
2908 7 12 0 58.5083114045368 32.00292296145936 35.34587929335592 -4 -4 1
909 2 4 0 55.814945560671305 32.973174239779176 33.77534425764965 0 0 1
2904 7 11 0 58.17601398515997 32.81125157841934 35.989376497861926 -4 -4 1
1947 3 4 0 57.65093630315774 27.760468218730303 32.80959154376362 0 1 0
1949 3 5 0 58.07815428318135 27.809507237195543 33.9025429989172 0 1 0
907 2 8 0 54.928292095940705 33.9067944219648 31.924342203665248 0 0 1
908 2 3 0 55.82426112592907 33.90129566254924 32.450595150494586 0 0 1
2913 7 12 0 58.12497841289073 34.076105015314496 34.13281028250357 -4 -4 1
912 2 14 0 56.16702559446158 33.80326127158791 34.856495300547664 0 0 1
2902 7 12 0 56.88882237515699 30.45543393072206 35.32612855603467 -4 -4 1
140 1 14 0 56.00886343853993 27.5014978817397 35.209613358837984 0 1 0
2907 7 16 0 57.60136388013052 33.95243997238926 35.08415037994243 -4 -4 1
1950 3 14 0 56.22231425124519 27.723273978585674 32.80913179662226 0 1 0
144 1 4 0 54.208796754026 28.29857286469497 36.77778262818685 0 1 0
2900 7 11 0 56.59354684135623 30.73510829028029 36.43242474818649 -4 -4 1
2901 7 11 0 57.105079149574934 32.12099548009963 36.88609610899198 -4 -4 1
2911 7 12 0 54.67878601387636 31.38470650847769 37.47469033096386 -4 -4 1
2899 7 16 0 55.1125471393579 30.63805817034393 36.79263082754435 -4 -4 1
2906 7 12 0 56.17284544328787 32.71472794511488 36.87215796794784 -4 -4 1
2903 7 12 0 57.171961619830086 30.08792468165821 37.10960544755539 -4 -4 1
147 1 14 0 54.926954272228635 29.36584369585759 37.42673549214889 0 1 0
135 1 8 0 57.74046713274748 27.862412756722737 36.57016086926118 0 1 0
2909 7 12 0 59.07562262583719 33.1983909773331 36.50817664210155 -4 -4 1
900 2 8 0 57.71754935357916 35.36088158301883 31.097846246313654 0 0 1
910 2 1 0 55.93475726940066 35.03217367914684 32.731589341159435 0 0 1
2879 5 12 0 54.122293052638966 27.32838375544507 33.12305723773538 -2 0 0
2920 8 12 0 52.76166080477865 34.17599222808452 60.0199155913342 1 6 -3
902 2 4 0 56.93581641108335 33.44977470107822 31.42552232510991 0 0 1
904 2 5 0 57.86635745570176 33.14093154882276 32.00890523164344 0 0 1
905 2 9 0 56.57296026547509 32.28195434750343 30.643875345976447 0 0 1
1241 2 14 0 31.429299838239995 36.189569676246826 34.80772714391103 1 0 0
2858 4 12 0 32.326859928323934 35.412888606174775 32.59389584580485 0 2 0
2855 4 11 0 31.365092922940317 35.88243249327376 32.355140336855676 0 2 0
2856 4 11 0 31.383272495233697 36.554643476553096 30.928394194870393 0 2 0
2854 4 16 0 30.940976148677215 36.72914403634502 33.5496322038485 0 2 0
2866 4 12 0 31.198735584181353 37.74184533124543 33.494532795373495 0 2 0
2857 4 12 0 30.680098394649253 35.0442334222189 32.25391751199714 0 2 0
2860 4 12 0 30.8179685857329 37.557354774322846 31.02465729926159 0 2 0
1244 2 3 0 33.17042325729058 37.852274258908764 35.363874084453144 1 0 0
1238 2 4 0 31.888477556323036 37.13105886276175 35.774293163207076 1 0 0
2951 10 12 0 35.64210056838077 37.03410426707672 30.657974045915896 0 0 1
1243 2 8 0 33.41695815338177 37.768529098242276 34.341802852117695 1 0 0
2861 4 12 0 30.656211859910016 35.89688281371695 30.39034357316147 0 2 0
1240 2 5 0 31.15800605190846 37.851595508626446 35.79759697761706 1 0 0
1246 2 1 0 33.93416491744282 37.19037727793358 35.861438752636126 1 0 0
2949 10 11 0 36.904826691319805 38.39922322620465 31.714947946034115 0 0 1
2946 10 11 0 36.389500739647026 36.980834239293955 31.44924912391778 0 0 1
2950 10 12 0 36.135114347723935 36.46515617814168 32.36227975124578 0 0 1
2945 10 11 0 37.4450159799401 36.017579610007516 30.7974307361175 0 0 1
2953 10 12 0 37.420683018403416 38.83102069055209 30.907392031795595 0 0 1
5 1 2 0 30.616270262814467 40.68980587280021 32.60929630513275 1 0 1
2 1 3 0 31.56219769139345 41.1584299317755 32.335834428967324 1 0 1
3 1 4 0 31.868036626067948 41.036830341366944 30.87547434198169 1 0 1
4 1 1 0 31.432477220868293 42.1455289760188 32.56110994089807 1 0 1
2958 10 12 0 34.88533086594443 39.444604341702544 32.48890885906981 0 0 1
11 1 4 0 34.4772039535093 41.236038534093936 30.830182103501794 1 0 1
10 1 3 0 33.17539466816061 40.43695409256493 30.446080567036308 1 0 1
12 1 1 0 33.211495824180325 39.48986099119227 31.018401291779632 1 0 1
14 1 14 0 35.69524212812855 40.32769940656911 30.86422309756589 1 0 1
2952 10 16 0 35.908119665402744 39.621518964378936 32.07169301971856 0 0 1
1 1 8 0 32.35924918561572 40.75291389014733 33.01222105531518 1 0 1
1253 2 1 0 31.744405445547855 40.15467858766364 35.332171789343924 1 0 0
1248 2 9 0 34.111438863970164 40.09693990876575 34.8770244313325 1 0 0
7 1 9 0 31.007194280201553 40.06409373327111 30.41838568856886 1 0 1
2610 4 14 0 36.729885401883394 40.33101385817169 33.03822226481898 0 0 0
1233 2 5 0 30.81569367656516 34.67487068852126 36.834318847095744 1 0 0
1237 2 3 0 31.799238870282654 36.61962257556594 37.19111548693506 1 0 0
1245 2 4 0 33.46888310484623 39.265952300899336 35.92332204175503 1 0 0
450 1 8 0 36.93664353891966 34.73805550985396 36.64720140245582 0 0 0
1251 2 3 0 32.30656312668521 40.01758855935402 36.332096206214416 1 0 0
1252 2 4 0 32.57135219227177 41.42053894238299 36.99346343925 1 0 0
1249 2 7 0 34.07941109442646 39.64318453013051 34.008391348529244 1 0 0
2864 4 12 0 33.51903514021315 37.12264566017203 30.646115080222756 0 2 0
2947 10 12 0 36.83051943784357 35.68992513779707 59.97146012742539 0 0 0
2954 10 12 0 37.60074380340204 38.23925064452497 32.55143185178049 0 0 1
2013 3 14 0 59.56337134173161 36.525624066047435 33.41443207566604 0 0 0
6 1 5 0 31.613281645195798 41.962670158342206 30.340853808986864 1 0 1
13 1 5 0 34.45851715044645 41.710326196234746 31.778420018509184 1 0 1
2605 4 8 0 35.42315391359153 42.022887916455005 34.28393800159677 0 0 0
2607 4 4 0 37.16633359348701 41.703230345743464 32.948515211405095 0 0 0
2609 4 5 0 37.24053894744366 42.015557841090306 31.934480593033193 0 0 0
8 1 7 0 30.55922285884191 40.382569800841345 59.68730304979718 1 0 0
2859 4 11 0 32.65824722669037 36.60823775200965 30.114836038552934 0 2 0
2956 10 12 0 37.985754224770616 34.2818930982213 32.18307764008829 0 0 1
2697 4 3 0 41.9068952036519 34.62493956946361 31.98427663480701 0 1 0
446 1 1 0 37.76035445058618 36.8396985187041 35.146997439653475 0 0 0
2944 10 16 0 38.29181083655838 34.786860375431075 31.267961779055014 0 0 1
443 1 8 0 38.11234249016554 36.12105815014301 33.4981773280841 0 0 0
444 1 3 0 38.47083983464805 36.27225493354794 34.500634630298876 0 0 0
445 1 4 0 38.37106494086201 34.90567151797837 35.08160344406537 0 0 0
438 1 4 0 39.830081259377785 37.02212036284729 34.431045283627554 0 0 0
441 1 14 0 40.05388826096872 37.57746677415828 33.11668233797842 0 0 0
440 1 5 0 40.676809495877706 36.32156667457963 34.64603772795447 0 0 0
2694 4 14 0 39.636111607976744 35.24100737432181 31.343650753443747 0 1 0
3094 20 16 0 41.33541534648326 38.19772132162791 33.07315862862766 0 0 1
3095 20 11 0 41.604630061832374 38.578189719623474 31.61165326768718 0 0 1
3101 20 12 0 39.604746959539646 38.72824392630549 31.1300508705253 0 0 1
437 1 3 0 39.834237200028284 38.2594150248374 35.286968391838954 0 0 0
3096 20 11 0 40.53879982915396 38.801847713003156 30.54432911578137 0 0 1
436 1 8 0 38.99620190863325 38.82910890347349 34.94537382475751 0 0 0
2948 10 12 0 38.25084949079982 36.538106776270105 30.350605559151028 0 0 1
2696 4 8 0 41.72783792701932 35.54762795642976 32.52842511384546 0 1 0
431 1 4 0 41.177298685849685 38.98514036339245 35.156005694798196 0 0 0
3100 20 12 0 40.41004906749709 39.894938503057105 30.25462262332464 0 0 1
2699 4 1 0 42.167632423344976 34.718088848452936 30.929819987035895 0 1 0
3106 20 12 0 41.98607982007762 37.52839724694074 33.53450024433657 0 0 1
433 1 5 0 42.11711977332968 38.44444381550895 35.454805912929686 0 0 0
3097 20 12 0 42.340483969364094 37.83634276424663 31.260112967389258 0 0 1
3098 20 12 0 42.29050503345057 39.514953617811685 31.561072661355944 0 0 1
434 1 14 0 41.290458644325376 39.414619079182216 33.770830141611754 0 0 0
2612 4 8 0 39.05956091687224 40.810365615639576 33.058751140454866 0 0 0
2613 4 3 0 38.63783846384179 41.76319009380818 33.38450861729898 0 0 0
2615 4 1 0 38.610072450453714 41.60419026420811 34.446456762804864 0 0 0
427 1 9 0 42.79939304386732 41.45095970308056 34.646723629008655 0 0 0
428 1 7 0 43.51820959264488 42.06557110766131 34.882743377935995 0 0 0
451 1 3 0 38.038529393588064 34.89838382965381 36.58138279298838 0 0 0
453 1 1 0 38.162543936279505 35.95470148194726 36.87935363433166 0 0 0
439 1 1 0 39.568610517250015 37.85544874601075 36.300644428984654 0 0 0
2061 3 5 0 45.151512007561344 37.144234934300705 35.529188749909466 0 0 0
429 1 8 0 40.50034154046405 40.891899199709016 35.83790209888152 0 0 0
430 1 3 0 41.24106378560122 40.235701746008175 36.12096365884563 0 0 0
432 1 1 0 40.993479764745175 39.87499099748524 37.24855024395625 0 0 0
424 1 4 0 42.5472485960695 40.97440488095112 35.90715466555879 0 0 0
426 1 5 0 43.405296579125014 40.379128197073356 36.12281108313011 0 0 0
955 2 7 0 43.730443560476246 36.34986292011229 30.972868456686996 0 0 1
954 2 9 0 44.02922754108258 36.075372543478124 30.139911365116813 0 0 1
2618 4 7 0 40.241461620869266 41.530644976274594 31.94547321970448 0 0 0
460 1 1 0 40.099983175190275 35.564708244242354 38.09070536515044 0 0 0
614 1 1 0 45.62499223067666 42.65718943190108 59.99703853572999 0 0 0
942 2 8 0 46.44569982432773 34.739701024369054 33.903004306741636 0 0 1
2059 3 4 0 45.97827542787818 37.546129245344886 36.17109871965635 0 0 0
2060 3 1 0 45.7068970556514 39.23093145824106 34.81724089029122 0 0 0
935 2 8 0 48.45623368292365 35.8975804965481 35.22759675269884 0 0 1
943 2 3 0 47.09042187330863 34.81415073245262 33.01101199744497 0 0 1
948 2 7 0 45.06955227348169 35.525970189000795 33.5883661256055 0 0 1
947 2 9 0 45.082658032339104 36.147666272057066 32.85702780971458 0 0 1
2057 3 8 0 46.962522345022734 37.9798149228045 34.313086492725844 0 0 0
944 2 4 0 46.4061906265202 35.96171750840148 32.21988706713327 0 0 1
2058 3 3 0 46.506711642159296 38.541518183972386 35.13740833908966 0 0 0
2052 3 4 0 47.78602946177135 39.32332513804093 35.68951483005596 0 0 0
2055 3 9 0 48.66070788449753 38.46384684742267 36.30121942819119 0 0 0
932 2 5 0 51.030457360592855 35.35943605485525 34.95744707698103 0 0 1
937 2 4 0 48.62999872238036 34.898226779778604 33.3343547123892 0 0 1
946 2 5 0 47.0144179906592 36.90244791691876 32.46489937734099 0 0 1
2056 3 7 0 48.2698133470638 37.598728135474715 36.21256884173695 0 0 0
939 2 5 0 49.0479192541272 35.74877735833414 32.783482776627274 0 0 1
2034 3 14 0 52.496024848047874 36.53141836307655 32.546619915051686 0 0 0
2037 3 3 0 51.88823739155083 38.25644548154535 34.09751137151464 0 0 0
2039 3 1 0 51.0933849679993 37.768100631898484 33.487083916603964 0 0 0
2036 3 8 0 51.41566265443675 37.91248499099939 35.007555360062895 0 0 0
2046 3 1 0 51.156960139171765 39.8063066152552 36.06717346452365 0 0 0
2051 3 3 0 48.54422142373448 39.93532428943735 34.56627937377204 0 0 0
2053 3 1 0 47.89470195868501 40.42836398729834 33.75945714657735 0 0 0
615 1 5 0 46.11093031067035 40.528161988637336 31.77654444692792 0 0 1
613 1 4 0 46.55714711089195 41.09059460833897 30.840417991181276 0 0 1
616 1 9 0 46.02679396168532 40.53218900496896 59.719212884365774 0 0 0
617 1 7 0 46.096264732619744 39.55027580020895 59.79953868480423 0 0 0
2050 3 8 0 48.96895988537163 38.97978802115898 34.16603570115983 0 0 0
2040 3 5 0 51.13102210077369 39.916509483990104 32.83775213972409 0 0 0
2047 3 5 0 49.443953736069304 41.447057514112444 35.9001029341063 0 0 0
2038 3 4 0 51.73131748012587 39.735176104120306 33.84348082609767 0 0 0
2041 3 9 0 52.93668686752221 40.410813343124666 33.724976184283605 0 0 0
2044 3 3 0 51.076645736263934 40.36017806273379 35.04746403290851 0 0 0
2043 3 8 0 51.63591461477686 41.16682696658862 35.512006594499205 0 0 0
2045 3 4 0 49.62962933481762 40.95077886357828 34.939559913042004 0 0 0
2048 3 14 0 49.59211701259791 41.86319827786147 33.83105326798245 0 0 0
623 1 9 0 49.28068272098102 39.008743507074286 31.263359214251327 0 0 1
2042 3 7 0 52.62684172575087 40.969166353999505 33.01172073812548 0 0 0
622 1 5 0 47.682403894807635 38.8678833846878 30.111902073581582 0 0 1
624 1 7 0 49.001020087837965 39.47245895112064 32.08652522005129 0 0 1
2062 3 9 0 46.81432341275918 36.56928516492091 36.7334292819636 0 0 0
2063 3 7 0 46.974897168178586 37.04884528270678 37.602218322828186 0 0 0
2054 3 5 0 47.53512908950698 40.15495422692402 36.23640886353834 0 0 0
949 2 8 0 46.164474539395975 34.71168078389091 30.510176525118645 0 0 1
950 2 3 0 46.29375469686755 35.826166685259714 30.70713083728212 0 0 1
2923 8 12 0 50.858422600352 36.640083162676135 30.291736053370094 1 6 -2
2919 8 11 0 51.90916643790369 36.12612566054268 30.198971920359327 1 6 -2
620 1 4 0 48.51227507983077 39.65150474505542 30.26333872528762 0 0 1
2020 3 14 0 57.91839949934768 35.13788689479623 35.88896202433416 0 0 0
2031 3 4 0 53.04680935362019 37.526199596361934 33.484345254591474 0 0 0
2806 4 14 0 52.689990156743896 38.11025904092331 30.803517183759823 0 0 0
2922 8 16 0 52.78685983001688 36.754120641357645 31.195015239917176 1 6 -2
2029 3 8 0 53.13711704772443 36.58524956910217 35.369425095127816 0 0 0
2032 3 1 0 53.97989872177918 35.58944932295262 34.17672136920693 0 0 0
2928 8 12 0 53.78895341123399 36.4127056220878 31.170900274270604 1 6 -2
2033 3 5 0 53.84643629804516 38.2039236495265 32.951938316499756 0 0 0
2030 3 3 0 53.76577046269958 36.637463903741825 34.443309170966245 0 0 0
2803 4 4 0 53.90238892702584 38.59180511033607 30.276245645338822 0 0 0
2012 3 5 0 59.56952120319015 38.32552441172033 34.40147214569085 0 0 0
2028 3 7 0 55.233838917846384 38.36861631887809 36.38115536148628 0 0 0
2008 3 8 0 58.94030106896615 38.22642189666195 31.93754360303682 0 0 0
2024 3 4 0 55.05818780096247 37.33468797204709 34.90716301931727 0 0 0
2026 3 5 0 55.74290122784406 37.729806877412656 34.09104790293154 0 0 0
2019 3 5 0 57.06613355304289 36.05978949526522 34.13465145108964 0 0 0
2017 3 4 0 57.35778497218567 36.23996007944412 35.18343864591581 0 0 0
2010 3 4 0 58.855946765761445 37.64475222072261 33.96067264391029 0 0 0
2011 3 1 0 57.38562442744059 37.6928534506721 32.475289743728325 0 0 0
2016 3 3 0 58.11794738885932 37.44736749031731 35.27891439523104 0 0 0
2009 3 3 0 58.190938851152914 38.35465210741255 32.77661495846577 0 0 0
2023 3 3 0 55.9757687316991 36.572450370198396 35.79879490179537 0 0 0
2015 3 8 0 57.48675466378704 38.34614760592906 35.47426119500254 0 0 0
2027 3 9 0 54.613575791387674 38.42342353430108 35.65047131418427 0 0 0
2025 3 1 0 55.46619019794498 35.717190039444354 36.24802707672928 0 0 0
2018 3 1 0 58.91348697961759 37.282432734927255 36.04744362224833 0 0 0
2022 3 8 0 56.07232030522306 37.22075130223243 36.74792209401244 0 0 0
2807 4 6 0 54.80375050196794 38.181687340429555 30.891132016482466 0 0 0
2801 4 8 0 52.76552444498989 40.34656326529016 59.85666510331559 0 0 -1
2802 4 3 0 53.808993959232915 40.10596087160176 59.91310232810676 0 0 -1
2005 3 5 0 58.27989593188974 40.08183066429942 33.82993372632508 0 0 0
2007 3 7 0 56.27183975057386 39.45369307741459 34.3081490809025 0 0 0
2003 3 4 0 57.66876071944945 39.789625068452814 33.012547687124275 0 0 0
2001 3 8 0 58.72663031300898 40.48096551138672 31.285901883733544 0 0 0
2006 3 9 0 56.348893043298176 39.85550498363514 33.46789534203671 0 0 0
2002 3 3 0 57.69006984485873 40.66279478817757 31.725665044900953 0 0 0
1996 3 4 0 57.310808353452586 42.13894158395716 31.75133990360029 0 0 0
1999 3 9 0 55.90750113663546 42.394304074391925 31.81222673554879 0 0 0
2004 3 1 0 57.070648219751845 40.2053003733396 30.933604633724222 0 0 0
2000 3 7 0 55.905856549922206 42.56653799432645 32.74328482598982 0 0 0
2804 4 1 0 54.275796863810015 40.658722519931786 30.634384896339068 0 0 0
2143 4 8 0 56.752152972311706 38.940783920561806 37.843348944469895 0 0 0
2148 4 9 0 58.93658576622379 39.87621457616493 39.63590661278292 0 0 0
2150 4 8 0 58.591838634811914 40.44258780097286 36.858485685499694 0 0 0
1994 3 8 0 57.385660693651275 42.87325842459339 33.7885850686221 0 0 0
1998 3 5 0 57.65727885464361 42.47626737823943 30.795802097547643 0 0 0
2151 4 3 0 58.140009762094365 41.185992594425414 37.552591935693684 0 0 0
2145 4 4 0 57.79023502343979 40.47364315521533 38.94592455002418 0 0 0
897 2 5 0 55.79422071564771 35.3572886705174 59.192248477312845 0 0 0
1257 2 8 0 31.406865877505236 42.36111057758793 35.67365575722875 1 0 0
2603 4 9 0 34.31178704916304 43.981878834510084 33.453185706528934 0 0 0
2604 4 7 0 33.781458386658024 43.41371650871356 32.89001801808969 0 0 0
2602 4 5 0 35.79099717829575 43.66360845062563 32.07444130199763 0 0 0
22 1 7 0 33.55590956722067 44.27848058625813 31.48160264667594 1 0 1
2600 4 4 0 35.67171283916146 43.80549241068311 33.107824557884236 0 0 0
2599 4 3 0 36.44128839988822 45.115333269978066 33.3207638484963 0 0 0
2606 4 3 0 36.2767038414697 42.62153511606343 33.88886827374248 0 0 0
1264 2 8 0 31.75205922049396 45.06390697709645 34.74530038076266 1 0 0
2598 4 8 0 36.1875033366196 45.651450506260545 34.25398591396991 0 0 0