LAMMPS data file via write_data, version 23 Jun 2022, timestep = 500000

2988 atoms
18 atom types
3044 bonds
16 bond types
5800 angles
31 angle types

29.854464213791395 60.25253578620624 xlo xhi
26.93996421379139 57.338035786206234 ylo yhi
29.8234662137914 60.22153778620624 zlo zhi

Masses

1 1.00794
2 1.00794
3 12.0107
4 12.0107
5 1.00794
6 1.00794
7 1.00794
8 1.00794
9 15.9994
10 12.0107
11 12.0107
12 1.00794
13 15.9994
14 15.9994
15 12.0107
16 12.0107
17 1.00794
18 15.9994

Pair Coeffs # lj/cut

1 0.038 2.44997
2 0.038 2.44997
3 0.039 3.87541
4 0.039 3.87541
5 0.038 2.44997
6 0.038 2.44997
7 0 0
8 0.038 2.44997
9 0.228 2.85978
10 0.148 3.61705
11 0.039 3.87541
12 0.038 2.44997
13 0.228 2.85978
14 0.228 2.85978
15 0.148 3.61705
16 0.148 3.61705
17 0 0
18 0.228 2.85978

Bond Coeffs # harmonic

1 340.618 1.105
2 340.618 1.105
3 322.716 1.526
4 340.618 1.105
5 340.618 1.105
6 340.618 1.105
7 384 1.42
8 540.634 0.96
9 283.092 1.52
10 340.618 1.105
11 615.322 1.23
12 322.716 1.526
13 340.618 1.105
14 384 1.42
15 540.634 0.96
16 384 1.42

Angle Coeffs # harmonic

1 39.5 106.4
2 44.4 110
3 39.5 106.4
4 44.4 110
5 39.5 106.4
6 46.6 110.5
7 44.4 110
8 44.4 110
9 70 109.5
10 46.6 110.5
11 44.4 110
12 58.5 106
13 39.5 106.4
14 57 109.5
15 57 109.5
16 46.6 110.5
17 45 109.5
18 50 120
19 68 120
20 46.6 110.5
21 44.4 110
22 55 120
23 39.5 106.4
24 70 109.5
25 57 109.5
26 70 109.5
27 57 109.5
28 80 109.5
29 70 106
30 80 109.5
31 58.5 106

Atoms # full

986 2 4 0 33.41200378805857 29.330469820157592 34.116545555062174 0 0 1
979 2 4 0 34.961589661973626 31.41321543916642 33.468692860945154 0 0 1
988 2 5 0 33.24945894729749 29.361902709209975 33.09247384161011 0 0 1
981 2 5 0 34.14443827260187 32.00651088158059 33.16344609368346 0 0 1
985 2 3 0 34.422315900162936 30.45242865736546 34.54739960406003 0 0 1
989 2 14 0 32.1897276249037 29.692659724817926 34.73727524247701 0 0 1
3018 14 12 0 31.952316063107432 31.314793379943573 33.4360098211597 -8 -2 2
1760 3 5 0 31.1812142156286 32.98561999755765 34.424101961578984 1 0 0
992 2 3 0 34.0256409837157 27.979109851661416 34.427257190563544 0 0 1
987 2 1 0 35.401123665530655 30.023795605382826 34.98735276409127 0 0 1
3012 14 16 0 31.312286418695205 30.464534495901525 33.91880538751029 -8 -2 2
982 2 9 0 35.93335941668904 32.29203288114487 34.094744982474204 0 0 1
3014 14 12 0 31.080140501699347 28.9905015006292 32.390607922690954 -8 -2 2
1019 2 8 0 33.080046918507186 29.272555150437455 30.11025439905862 0 0 1
1026 2 8 0 31.783528232454866 31.092617280034354 30.58951065145835 0 0 1
984 2 8 0 33.843037461593624 30.99672822017008 35.33202009541611 0 0 1
994 2 1 0 35.06211056990586 27.807042144256634 34.150030826473255 0 0 1
998 2 8 0 33.79011290676435 27.588479537257673 31.883976857144095 0 0 1
1758 3 4 0 30.40741831017536 32.39826728221902 35.00963787374599 1 0 0
3009 14 11 0 30.44732450866998 29.61194609905299 32.9315133025922 -8 -2 2
1761 3 14 0 30.33997947802531 30.99332332156255 34.740540153138916 1 0 0
1009 2 5 0 35.07561547856266 27.747569220289307 30.179092988960367 0 0 1
991 2 8 0 33.90258470068959 27.983583010606917 35.459778354000726 0 0 1
978 2 3 0 35.40636455136555 30.718802920737915 32.18863177501238 0 0 1
980 2 1 0 34.58565435050764 30.763213604853075 31.405180587832742 0 0 1
977 2 8 0 35.821752445857236 29.724199894611306 32.40075136340233 0 0 1
1032 2 7 0 34.00261720897459 31.887844412005393 29.969634785524434 0 0 1
996 2 14 0 31.829791474577597 27.29251306735881 34.098382140061325 0 0 1
1022 2 1 0 31.884046805724758 28.068426731665173 30.390094211091217 0 0 1
974 2 5 0 36.65236463046462 32.55539176956773 31.506806845966913 0 0 1
983 2 7 0 36.29716405005519 32.71882672943268 33.322766996872375 0 0 1
975 2 9 0 37.74534711013242 31.26367375025016 32.44300220731191 0 0 1
972 2 4 0 36.64925344641071 31.45286783033548 31.655245535144807 0 0 1
973 2 1 0 36.28999556841416 29.784612737785913 30.242375477358884 0 0 1
976 2 7 0 38.07126486532057 30.36082500809099 32.32846437518019 0 0 1
971 2 3 0 36.89350329602053 30.721834971443954 30.332721552586637 0 0 1
970 2 8 0 37.958872620392725 30.511531707126114 30.36964936062294 0 0 1
1933 3 4 0 41.09284177154774 32.942461791875715 31.808099493857448 0 0 0
1935 3 5 0 40.59901783979882 31.937381616010004 31.71994586405067 0 0 0
668 1 3 0 38.43753887997255 28.027542927314098 35.65670654457049 0 0 0
673 1 7 0 40.442976321367 29.312302328881735 33.68919276242813 0 0 0
672 1 9 0 39.83971189467941 29.225212065874143 34.37797638613227 0 0 0
664 1 5 0 37.420920781114354 29.980345988141085 35.510213608321145 0 0 0
659 1 7 0 39.486767454958986 30.63093687935793 35.15285177542525 0 0 0
658 1 9 0 39.356754780165375 31.533471724605995 35.346382087644244 0 0 0
669 1 4 0 39.0337546063488 28.11700767579794 34.206579130580245 0 0 0
677 1 1 0 40.31523418471488 27.146224235168255 32.695923888192105 0 0 0
671 1 5 0 38.175797344766735 28.40020156215256 33.523808551881075 0 0 0
1930 3 7 0 41.574336352535866 30.97508581166426 30.75399916858106 0 0 0
667 1 8 0 37.620041256957734 27.242807641913164 35.57987062567403 0 0 0
1932 3 3 0 42.33596400199372 32.921983267101446 30.902645867164306 0 0 0
1692 3 7 0 42.139347277543024 30.37362601752011 34.43031071058913 0 0 0
1691 3 9 0 43.03304082524801 30.63466887601026 34.22755380274274 0 0 0
1697 3 5 0 43.55723203532161 28.953395678203012 32.492199576169774 0 0 0
1698 3 14 0 45.47193580419136 28.63097360343012 32.920105873532044 0 0 0
1695 3 4 0 44.13203211971867 28.218526776603998 33.05825591505605 0 0 0
1694 3 3 0 43.67804245155035 28.333033117532505 34.53579867656672 0 0 0
2914 8 16 0 46.50989046166404 27.720722584502397 33.31167545748751 3 5 8
1921 3 5 0 45.83024493685234 30.76702906084157 30.825644685824408 0 0 0
1688 3 4 0 43.818123482012986 29.707612535554276 35.063613865373526 0 0 0
1709 3 4 0 46.46154814280136 27.471755192652203 30.787713283009726 0 0 0
1912 3 4 0 46.87993197439157 32.07536665219908 32.53004763118732 0 0 0
1914 3 5 0 46.23356718025696 31.21095024853397 32.712415724211404 0 0 0
1690 3 5 0 44.9093096332392 30.008976354018714 35.029569618759865 0 0 0
1929 3 9 0 42.43537037083863 30.57914700013277 30.68885060200203 0 0 0
1928 3 5 0 43.81096026744993 31.39169039464185 31.831780863330348 0 0 0
1926 3 4 0 43.260445882764614 31.688471469156767 30.86570609199657 0 0 0
1711 3 5 0 45.87173837753109 28.46021415644006 30.809958214267716 0 0 0
1696 3 1 0 44.18528934100396 27.53053225840349 35.14126412225338 0 0 0
1712 3 14 0 47.14290856993232 27.38196779004557 32.04783696043683 0 0 0
1693 3 8 0 42.70282419719855 27.949281048592375 34.551565890923655 0 0 0
1704 3 5 0 44.067682188853695 27.607323950938333 30.190406495027407 0 0 0
2916 8 11 0 47.638952243704495 28.21310522066679 35.47638495163887 3 5 8
1907 3 5 0 46.782647727616926 31.835875549598185 35.364885160844835 0 0 0
1918 3 3 0 46.509822157177524 32.702454054006225 31.148397975230495 0 0 0
1919 3 4 0 45.8478370570226 31.594651598170294 30.20252811327506 0 0 0
2917 8 12 0 47.30186108184874 29.652109719474115 33.93302100252487 3 5 8
1718 3 5 0 47.69334916260115 29.462576206328354 30.18514346696082 0 0 0
2915 8 11 0 47.55102264086052 28.65057652121764 34.06330225649745 3 5 8
1905 3 4 0 47.57372034360614 32.65022004388281 35.04628407256356 0 0 0
2920 8 12 0 47.70421452408787 27.1177710957392 35.59732161103225 3 5 8
1909 3 7 0 48.54791709257533 31.042420571418077 35.16841225329824 0 0 0
1915 3 9 0 48.14423984113712 31.321515156677947 32.310645966652395 0 0 0
1916 3 7 0 48.55707286434089 31.22439898479866 33.154020729940186 0 0 0
2918 8 12 0 48.47683415256216 28.379328319770224 33.45778679576547 3 5 8
1730 3 4 0 52.22615213279103 28.670001057119443 32.14977119497209 0 0 0
1733 3 9 0 51.46597134341064 28.75088667962036 33.4232044300758 0 0 0
1732 3 5 0 52.29995473417283 27.572315089998696 31.938476872392243 0 0 0
1725 3 5 0 49.27097228014681 29.319641302285277 31.632266219202045 0 0 0
1734 3 7 0 52.184028192007034 29.025709167306314 34.00553646400335 0 0 0
1729 3 3 0 51.34786069259917 29.398570961388128 31.108594298026368 0 0 0
1908 3 9 0 48.86508768522898 31.936070583688146 35.03911253886094 0 0 0
1723 3 4 0 49.968369113070196 28.775640572387953 30.944220511469045 0 0 0
1726 3 9 0 49.98929088238987 27.442761180499527 31.37032489099583 0 0 0
1735 3 8 0 53.93741478878992 29.53884770376111 31.296538276896374 0 0 0
1728 3 8 0 51.10587060769221 30.4095234501058 31.411168707137996 0 0 0
1736 3 3 0 53.638438477587016 29.141199244002294 32.28366740576905 0 0 0
1731 3 1 0 51.99818980512114 29.568826782387703 30.188691069222333 0 0 0
1740 3 9 0 53.03510110120307 31.37333049839045 33.168259719737776 0 0 0
1737 3 4 0 53.933036149292676 30.23073058864082 33.33299541905681 0 0 0
1739 3 5 0 53.89425906226933 29.775314038993983 34.35672006733067 0 0 0
2924 8 12 0 49.70330846351831 28.9660455238308 35.60484966337515 3 5 8
4 1 1 0 52.52838002891002 28.383795043147263 35.75305631730149 -1 1 0
1741 3 7 0 52.150710575157284 31.049817447327044 33.5012471314404 0 0 0
3013 14 12 0 60.181726512980774 30.27264692995334 32.365911310909276 -9 -2 2
1759 3 1 0 59.51199614618276 32.59759075296961 33.38407671878056 0 0 0
1738 3 1 0 54.200131442377774 28.18263784661279 32.3791156375641 0 0 0
1743 3 3 0 55.33671184072486 30.6204726543922 33.012198181880244 0 0 0
1745 3 1 0 55.92380364895214 29.716173615938967 33.122174689928244 0 0 0
1746 3 5 0 55.489665104850346 31.77873503196275 34.87852758285592 0 0 0
1744 3 4 0 55.844190561841025 31.835758857110573 33.83581592091986 0 0 0
3006 14 11 0 59.87622595038075 28.564464428452766 33.56441056212421 -9 -2 2
3011 14 12 0 58.82185447197615 28.89406413084164 33.43696277842025 -9 -2 2
1742 3 8 0 55.45948411505355 30.804081535224405 31.94336164846048 0 0 0
1752 3 1 0 57.919888536528994 30.854004504437 33.711678222974896 0 0 0
3010 14 12 0 60.00007892173902 28.579553205319325 34.71571954837998 -9 -2 2
1750 3 3 0 57.48307491418909 31.80657242597786 33.698737853379576 0 0 0
1751 3 4 0 58.056214938437385 32.67918449737709 34.745825749106174 0 0 0
1748 3 7 0 54.4769716094882 32.76076052906822 33.02960145891763 0 0 0
1749 3 8 0 57.660479737029675 32.11713431058437 32.60052430619803 0 0 0
1753 3 5 0 57.915361629694594 32.09759325987675 35.56578402147303 0 0 0
1757 3 3 0 59.48400314462556 32.98204632377253 34.37574260589003 0 0 0
3008 14 12 0 60.168443694619015 26.97658019507873 32.012133197447106 -9 -2 2
3005 14 11 0 60.08096091997414 27.123450397234265 33.11779429270562 -9 -2 2
1954 3 4 0 34.36972984909079 35.49393954012506 31.960510902363925 0 0 0
1960 3 3 0 33.28430769021731 35.930192039565796 33.03158023359705 0 0 0
1964 3 14 0 31.332800893703993 35.993459758753836 31.540255886524005 0 0 0
1961 3 4 0 32.062061219994874 36.710465352796895 32.57416270046704 0 0 0
1963 3 5 0 31.216731102390117 36.74474189557887 33.41559590513434 0 0 0
1959 3 8 0 33.748971333421785 36.42734801601962 33.88205031004955 0 0 0
1967 3 3 0 32.54413337654148 38.1217842286574 32.183749268051116 0 0 0
1962 3 1 0 32.884412859470906 34.98503208095747 33.45362010450478 0 0 0
1956 3 5 0 34.565794531048745 34.445298952695296 32.061060252443845 0 0 0
1969 3 1 0 33.642647196049424 38.103056098709494 32.17653419782746 0 0 0
1966 3 8 0 32.14867781611755 38.44568324524822 31.247540050644332 0 0 0
1957 3 9 0 34.12145389981548 35.83025336424943 30.626778254037067 0 0 0
2959 11 16 0 30.053386505452714 36.54021663676603 31.216300691601894 1 0 1
1971 3 9 0 31.664059666710468 38.67501498464538 34.38344113134934 0 0 0
1958 3 7 0 34.85937297693057 36.43928690962501 30.327243276174947 0 0 0
1955 3 1 0 35.727202394639555 37.208259809259005 32.757150765916165 0 0 0
1972 3 7 0 30.737611662852597 38.87132354256535 34.59886580228985 0 0 0
2966 11 12 0 30.264230858208766 38.68511710373819 29.93692197754313 1 0 1
1953 3 3 0 35.73820116947297 36.32318639142562 32.076811714482794 0 0 0
436 1 8 0 34.85195781925075 36.00347477365189 35.47808153634478 0 0 0
442 1 7 0 34.552726374704704 38.21574058245391 35.73872068574115 0 0 0
434 1 9 0 34.56788743400895 33.610218283463304 35.839005913085536 0 0 0
1944 3 7 0 38.80078680228417 33.092076955191224 33.03639323032749 0 0 0
1938 3 8 0 39.20345092920512 33.438527602374236 30.82435920783438 0 0 0
1931 3 8 0 41.93190896907508 33.2342223648452 29.837848352456664 0 0 0
1937 3 7 0 41.00243835954906 33.915741712225596 33.48284579129856 0 0 0
1943 3 9 0 38.85268734367209 33.96358508689816 33.49157518644781 0 0 0
1952 3 8 0 35.97312690112332 36.671571931759466 31.03904889362655 0 0 0
1939 3 3 0 40.029225621576494 34.053917200782806 31.32900214303457 0 0 0
1941 3 1 0 40.40854008100424 34.702551079169325 30.540424103778214 0 0 0
1945 3 8 0 38.15185837619193 35.6768305891565 30.982904861859566 0 0 0
1942 3 5 0 40.33784630320446 35.39516957483395 32.99916303313901 0 0 0
1951 3 7 0 35.96394419966602 36.42041508114572 34.20661567038938 0 0 0
1940 3 4 0 39.498590713766994 34.76238668573333 32.555124789128 0 0 0
1949 3 5 0 36.62595480890262 34.52640239173507 32.54930219060692 0 0 0
1950 3 9 0 36.82352834763992 35.92518656916863 34.05811491176602 0 0 0
1948 3 1 0 38.617411797853485 36.79831742056905 32.24609479240698 0 0 0
1947 3 4 0 36.92162003114214 35.553571162150476 32.66503514315159 0 0 0
1946 3 3 0 38.31405021590195 35.72591312231397 32.02580425490943 0 0 0
926 2 14 0 40.64261326865691 38.150407765604044 30.04388248479648 0 0 1
625 1 8 0 39.68695732894806 38.1862060620479 33.14618622743504 0 0 0
633 1 3 0 40.909568159459255 37.33419266903675 35.23208842299651 0 0 0
632 1 8 0 40.618746818532664 36.49955819813337 34.559432537479545 0 0 0
1936 3 9 0 41.514018730126864 33.23337654679565 33.09938672011979 0 0 0
627 1 4 0 41.38803461731477 38.515835209117746 34.400787011530625 0 0 0
626 1 3 0 40.15926378080357 39.003670313451046 33.72900699834342 0 0 0
3031 15 12 0 41.94248740805787 39.068309592678474 31.468400438591978 27 -21 0
1934 3 1 0 42.927602716156926 33.81936215873837 31.255961100887603 0 0 0
921 2 8 0 42.09743337714156 36.44202661110746 31.370355559505605 0 0 1
1920 3 1 0 45.79274729655294 33.53225404630041 31.346142336749843 0 0 0
1913 3 1 0 46.10866609046826 33.43027737467079 33.894209391960075 0 0 0
924 2 1 0 42.36642391090643 35.497709682106 30.007092709992698 0 0 1
922 2 3 0 42.430386142084004 36.49723613011573 30.32687612131577 0 0 1
916 2 4 0 43.909565978003094 36.93976954177516 30.606772013685273 0 0 1
918 2 5 0 43.859044264591006 38.00271830523065 30.944677101606676 0 0 1
919 2 9 0 44.16823816283925 36.40196238716911 31.910599074113055 0 0 1
920 2 7 0 45.09060586325994 36.57112182442179 32.0647621448162 0 0 1
1911 3 3 0 47.101130838114074 33.08108096760083 33.66145860659014 0 0 0
637 1 9 0 43.102081773360126 36.00340123814962 35.404489125373374 0 0 0
270 1 4 0 46.34318015704635 38.87505788215975 33.97670404736433 0 0 0
914 2 8 0 45.88184632712917 36.19898002702228 30.302725082799828 0 0 1
273 1 9 0 46.31934838705958 37.470378583720944 33.482873409593395 0 0 0
261 1 8 0 47.74550625412108 38.680196748956064 31.25002320262429 0 0 0
275 1 8 0 44.5746669082332 38.32600837513617 34.91921416691364 0 0 0
276 1 3 0 45.4178914084618 39.03298224546397 35.168394662503985 0 0 0
274 1 7 0 46.312703683990534 37.626888459743135 32.53911731020508 0 0 0
272 1 5 0 47.348259003822704 39.06796807745332 34.38685937898375 0 0 0
1917 3 8 0 47.41049024584738 33.14135967709168 30.73760667560226 0 0 0
1910 3 8 0 47.7598715032649 33.88820745144203 33.26663529705121 0 0 0
629 1 5 0 42.066917639411244 38.21320333062671 33.5894109066327 0 0 0
197 1 7 0 50.8696712541572 36.2211364530925 32.84423331385302 0 0 0
193 1 4 0 52.04737713587212 34.81101279598066 33.06672295439509 0 0 0
200 1 4 0 52.63657790306131 34.44080225858956 30.484210094275152 0 0 0
192 1 3 0 52.8041200914023 35.470247993531565 34.24763199608438 0 0 0
199 1 3 0 52.76817079380602 35.27636797393643 31.770327618839993 0 0 0
196 1 9 0 50.76603314109299 35.29903977324463 33.04131536786995 0 0 0
203 1 9 0 51.34633541263609 33.82806391394005 30.441993100200463 0 0 0
254 1 8 0 50.61991422266473 37.875267559718026 30.686323935268625 0 0 0
201 1 1 0 52.37999401313873 36.20089622317467 31.40705002828421 0 0 0
194 1 1 0 52.60580800904836 36.587871566324104 34.18090565399592 0 0 0
191 1 8 0 53.89072618838165 35.414771769078655 34.036712306702604 0 0 0
206 1 3 0 53.855727107682846 33.5521383452279 30.034701633573754 0 0 0
195 1 5 0 51.95674435741981 33.73471303239749 33.11326761108222 0 0 0
255 1 3 0 50.21972053710439 38.833127005885416 30.070535415348846 0 0 0
260 1 7 0 50.55625516180283 38.68049367187597 32.10011456062751 0 0 0
250 1 1 0 52.448085323483724 38.30685606717973 30.67417637792384 0 0 0
204 1 7 0 51.19534440753013 33.34193229957963 31.219532690728432 0 0 0
198 1 8 0 53.826638419968816 35.323828595932746 31.94405217900676 0 0 0
248 1 3 0 52.63024223338343 39.02966572365395 29.852388544660762 0 0 0
1903 3 8 0 48.289136619443944 34.549791493792874 35.64797492582744 0 0 0
186 1 4 0 52.36806683647712 35.230099715582085 35.63250902396773 0 0 0
189 1 9 0 51.70672827229917 33.9789992440338 35.640179049841464 0 0 0
1747 3 9 0 55.33960809116975 33.06175039296227 33.31700855831928 0 0 0
2971 11 12 0 60.169738018943264 37.45951342301472 31.82234069910206 0 0 1
1756 3 8 0 59.73740198904969 34.04052977299393 34.09959586037042 0 0 0
224 1 14 0 59.44204714562889 35.618964865303774 31.731729689502433 0 0 0
208 1 1 0 54.514928138101915 33.44019067230285 30.910178715794295 0 0 0
1754 3 9 0 57.32491231059873 33.900532802237294 34.90972139152559 0 0 0
222 1 1 0 56.04865935982562 35.35586611484066 31.46135984831217 0 0 0
220 1 3 0 57.058528018671346 35.130488182571945 31.155697516632674 0 0 0
226 1 8 0 58.27408764139163 36.74725937655871 33.53186128690005 0 0 0
227 1 3 0 57.51481031161521 36.99442457215756 32.76356224131106 0 0 0
229 1 1 0 56.64239459195112 36.430971891951586 33.046862652722446 0 0 0
221 1 4 0 58.08208932468641 36.22083732712002 31.53114399200182 0 0 0
228 1 4 0 57.018355587129086 38.42580473010315 32.46917670293255 0 0 0
231 1 14 0 56.30991051158456 38.98364576828078 33.61096585957286 0 0 0
230 1 5 0 57.85834513116008 39.07001809908738 32.37525704667345 0 0 0
233 1 8 0 54.98586440953631 38.722384516109315 31.780663672705803 0 0 0
219 1 8 0 57.320520812020035 34.17171648538816 31.776940138780866 0 0 0
234 1 3 0 56.003711602583316 38.57016879331133 31.319364743414162 0 0 0
2988 12 12 0 57.87164452819513 38.65470637703099 34.927085194902624 0 0 0
223 1 5 0 58.25068666938985 36.99423313080116 30.70204078133667 0 0 0
236 1 1 0 55.88293901716483 37.6275696899318 30.801412356019846 0 0 0
1755 3 7 0 56.4403597172673 33.522307484287865 34.76492954304726 0 0 0
218 1 7 0 57.593634325196376 33.12154824788441 30.469006338534264 0 0 0
1968 3 4 0 31.998041609293825 39.24762993931772 33.21206412266062 0 0 0
1970 3 5 0 32.807542530637924 39.99440008300031 33.39765282236064 0 0 0
1977 3 5 0 30.537918041991784 41.52284845104208 33.979877707244384 0 0 0
1975 3 4 0 30.72112854479214 41.51782968219802 32.95167633813105 0 0 0
1974 3 3 0 30.776207471120646 40.039495861148644 32.542131701325474 0 0 0
1978 3 9 0 32.099179226404836 41.9851938767909 32.7436884781095 0 0 0
1979 3 7 0 32.83416719565189 41.38316801133206 32.929846180849815 0 0 0
1976 3 1 0 30.79653264561016 40.04868102373449 31.417420885152872 0 0 0
1983 3 1 0 30.50085973111793 42.539452132268764 31.193476344297103 0 0 0
1990 3 1 0 29.965315184883075 44.91679212305458 31.193727349627167 0 0 0
1991 3 5 0 31.627274703748135 44.69435167640121 33.11002850148209 0 0 0
1993 3 7 0 29.88827035637906 44.45503242847987 34.583424463789825 0 0 0
3019 15 16 0 41.08952894259378 39.33272969659052 30.771777594605904 27 -21 0
628 1 1 0 39.40689753886643 39.40784441304204 34.41717632551313 0 0 0
623 1 14 0 40.03204123118737 39.82663540743208 31.466230909062197 0 0 0
613 1 4 0 38.65580043625533 41.93015557407854 33.91722056604633 0 0 0
615 1 5 0 38.90525166495913 41.71907936357502 34.870877991364864 0 0 0
619 1 3 0 39.89726497620404 41.557731355279174 33.04008374418523 0 0 0
620 1 4 0 40.50785701527965 40.160234991442074 32.76800601441703 0 0 0
612 1 3 0 38.51034750722764 43.43972693870078 33.83994784111017 0 0 0
611 1 8 0 39.23995921060153 43.89146288600371 33.232983194578026 0 0 0
618 1 8 0 40.80647437095294 42.22517898603407 33.20453620909293 0 0 0
614 1 1 0 37.56771128561239 43.724673321758814 33.35051111002917 0 0 0
621 1 1 0 39.603506345198035 41.899356702960404 32.02915091369233 0 0 0
616 1 9 0 37.443405308614004 41.291077793573294 33.57959766605756 0 0 0
622 1 5 0 41.636709363557515 40.321328078597865 32.90227902177057 0 0 0
606 1 4 0 38.71774717450345 44.265351163931506 35.12365834488825 0 0 0
617 1 7 0 37.73696709569127 40.528100436029966 33.0701787184505 0 0 0
630 1 9 0 41.76828855691399 39.57575672214219 35.27664490626608 0 0 0
2287 4 5 0 40.57097322989858 43.62674422197624 30.3166329976984 0 0 0
610 1 7 0 40.09027945318006 42.97173851426688 35.47085632592183 0 0 0
609 1 9 0 39.96869714094298 43.92952627991913 35.615457001503195 0 0 0
2285 4 4 0 41.049638060553875 44.55180554685283 29.91819216109723 0 0 0
2295 4 9 0 41.8517461261222 44.19845651573281 32.41809789498957 0 0 0
2296 4 7 0 41.21065016128594 44.803142239282366 31.978704522363262 0 0 0
3022 15 12 0 41.363554961564525 41.479609070387966 30.298413190148548 27 -21 0
631 1 7 0 42.61876016697725 39.25866055192063 35.606395023403415 0 0 0
268 1 8 0 45.57225462586603 39.41092731129014 32.07183564143449 0 0 0
269 1 3 0 46.11693413989332 39.87670082185314 32.84199476965242 0 0 0
271 1 1 0 45.513982397188755 40.704396508516055 33.200200152303424 0 0 0
2301 4 5 0 44.58779946437648 42.749189381723376 32.77337290843414 0 0 0
2299 4 4 0 44.8935262249674 43.796245884796456 32.90898397458513 0 0 0
2302 4 14 0 46.37217071455379 43.89861851735123 32.63473250635986 0 0 0
2298 4 3 0 44.0954038203523 44.65708635496796 31.925140360373447 0 0 0
2305 4 3 0 44.572963171099914 44.14609011742306 34.34637898317802 0 0 0
2292 4 4 0 42.858766776674955 43.860351828869824 31.43960225835712 0 0 0
2294 4 5 0 43.11810749471153 42.721270895109626 31.398904271025984 0 0 0
2309 4 9 0 42.754232582421146 42.92209070991906 34.79803868368092 0 0 0
2304 4 8 0 43.71781876191741 44.87962853317977 34.318547232469456 0 0 0
2300 4 1 0 44.7135880313449 44.91781996285534 31.04004214981851 0 0 0
266 1 14 0 47.152651230305025 41.815661604675796 31.702763804151175 0 0 0
2821 1 12 0 46.85213093162076 42.34502286636823 33.76903637695078 0 0 0
2291 4 3 0 42.53575747373486 44.50650904335971 30.12908849361238 0 0 0
2310 4 7 0 42.324275202321175 43.78123900264961 34.700754580261346 0 0 0
2809 1 16 0 47.22719777503215 42.77547655032336 32.79854874403584 0 0 0
263 1 4 0 47.38527041709803 40.56509510345303 32.23225049706036 0 0 0
278 1 1 0 44.89814047212823 40.07124096939838 35.12028891959521 0 0 0
2306 4 4 0 44.03531874653576 43.11296165747325 35.25702714558113 0 0 0
2308 4 5 0 44.66562111215018 42.21695634094378 35.12425933273397 0 0 0
3025 15 12 0 43.47502827566902 39.92799459724995 29.93054442860419 27 -21 0
264 1 1 0 47.712554202098666 40.06906645279078 30.158082016015427 0 0 0
265 1 5 0 48.07399315578114 40.62552222790257 33.13707809736132 0 0 0
2307 4 1 0 45.36866825608645 44.76678643365634 34.70952326543879 0 0 0
145 1 1 0 47.46725382347434 44.77883641453289 35.690216112922684 0 0 0
259 1 9 0 50.115879599213 39.43939965427222 32.381998067803515 0 0 0
262 1 3 0 48.10647315737188 39.71311372839695 31.1116143422633 0 0 0
256 1 4 0 49.64832717925455 39.862524423187224 31.12048176924778 0 0 0
258 1 5 0 49.94434376290853 40.88747113099952 30.904177651525064 0 0 0
2815 1 12 0 49.43023582642748 42.009713110707935 34.10497523518755 0 0 0
2811 1 11 0 49.65905996053788 43.02447479809463 33.83602721416179 0 0 0
2810 1 11 0 48.61188461808429 43.37211279406982 32.72836848917486 0 0 0
2813 1 12 0 49.0576469266271 43.17174787206787 31.659389961758162 0 0 0
2816 1 12 0 49.546992218312795 43.69812971640285 34.6885479477732 0 0 0
2812 1 12 0 48.39835542841755 44.46659499707155 32.79819355181098 0 0 0
2814 1 11 0 51.098657219294395 43.45493844152854 33.44790642840613 0 0 0
247 1 8 0 52.56764316603425 39.80905674902854 30.622922244875323 0 0 0
2823 1 12 0 52.913926197817865 44.32989227865566 34.13179347999279 0 0 0
2817 1 16 0 52.08937939015469 43.90827243986452 34.57847024654151 0 0 0
2818 1 12 0 51.045122434251525 44.389907365465774 32.69749081825765 0 0 0
2766 4 8 0 50.186045848600536 44.29043218482764 30.0956825566932 0 0 1
2819 1 12 0 51.581891544683984 42.52649398697967 32.99633976578844 0 0 0
1220 2 14 0 51.35254334608071 44.929937361362924 35.271343255456884 0 0 0
2765 4 7 0 53.370270355817524 44.542621292956085 30.874110060301742 0 0 1
2764 4 9 0 53.317826077660555 44.60550192104827 29.940224428459945 0 0 1
1213 2 14 0 52.44275942561289 42.80945655874841 35.439704165544185 0 0 0
2982 12 16 0 57.062166943435194 39.376145517109364 34.802355347545124 0 0 0
1973 3 8 0 60.22135906363712 39.595412665129885 32.92186171235461 -1 0 0
1981 3 3 0 60.215858270403565 42.318749536476005 32.01532472597624 -1 0 0
1988 3 3 0 59.98118952471477 44.86696472271031 32.19296877372684 -1 0 0
1984 3 5 0 59.640848574007656 43.26500828354936 33.8003181817668 -1 0 0
1980 3 8 0 59.39208652023366 41.70902479226966 31.61525848462988 -1 0 0
1982 3 4 0 59.48560809564907 43.57714176175148 32.70231124679568 -1 0 0
1985 3 14 0 58.07525939313534 43.41525739052511 32.565218895492606 -1 0 0
2980 12 12 0 56.25255103966708 41.81385390901629 33.092301013781814 0 0 0
2978 12 12 0 57.55405097044331 43.25941989472085 35.47154155026048 0 0 0
2981 12 12 0 55.58916539311046 41.419648059244324 34.65945914216198 0 0 0
2977 12 12 0 55.907043768776184 43.5355215291239 34.99155981760097 0 0 0
2986 12 12 0 57.95749716499567 44.96195903056212 33.87837893289393 0 0 0
2974 12 16 0 57.30402469993299 44.17210056145494 33.519808317912165 0 0 0
2975 12 11 0 56.877756552753596 43.26140672480886 34.57363646709738 0 0 0
2976 12 11 0 56.510923261594655 41.8278009320825 34.151446260441936 0 0 0
2979 12 11 0 57.642823099381516 40.8147586418239 34.487236763754375 0 0 0
2983 12 12 0 58.019749816465364 40.998414642083304 35.49820925094532 0 0 0
2984 12 12 0 58.465623157363595 40.7566411920792 33.76551886479091 0 0 0
1402 2 14 0 56.1706418869601 44.802186156301474 32.88971821379738 0 0 1
237 1 5 0 56.69599673465896 40.50904894666812 30.718366265368672 0 0 0
235 1 4 0 56.20462480512543 39.66140790963066 30.233626018402187 0 0 0
243 1 1 0 54.377707648718456 40.75306644979322 30.510664527196905 0 0 0
1566 3 7 0 56.73837851705866 44.20860600198883 29.893382257815112 -1 0 1
2973 11 12 0 58.638053023682005 39.982454632834695 30.001346342357735 0 0 1
1989 3 4 0 30.699489336863348 45.324961032139164 33.07580644677945 0 0 0
1997 3 1 0 31.65495304570909 46.84215902591864 31.677237883735692 0 0 0
1998 3 5 0 32.59082668485702 46.327226231058376 34.26418273417595 0 0 0
2004 3 1 0 33.82479593521468 46.42510408781485 32.12217921370406 0 0 0
1995 3 3 0 31.187190930363855 46.68339743791833 32.76689451203416 0 0 0
1996 3 4 0 32.430915113825975 47.132274525039975 33.52925797242488 0 0 0
2002 3 3 0 33.63443949344756 47.354336529139985 32.74185860526111 0 0 0
2001 3 8 0 33.47555650921562 48.108863388122856 32.00412459802051 0 0 0
2005 3 5 0 34.44700043066251 48.494332729837325 34.31122323906499 0 0 0
2003 3 4 0 34.81053648951375 47.76219916248825 33.51062445768651 0 0 0
2209 4 1 0 31.610080927952886 51.164221111453756 34.54456120039076 0 0 0
2213 4 8 0 31.648432916598836 50.46080684295919 31.874244465600896 0 0 0
1994 3 8 0 30.41509873823742 47.378505807600625 32.858153047042656 0 0 0
1999 3 9 0 32.192607624538645 48.349362651212424 34.24878574151103 0 0 0
2000 3 7 0 31.386909941023973 48.18056115392292 34.717080003242124 0 0 0
2012 3 5 0 34.58893271398421 50.19588922471954 32.88540068220131 0 0 0
2014 3 7 0 35.641326690598085 51.03446529033626 30.917738077729382 0 0 0
2013 3 9 0 35.2093269010444 50.19765328174557 31.102665591626202 0 0 0
2010 3 4 0 35.48623024755426 49.925890270238924 32.44686682660202 0 0 0
2006 3 9 0 35.29112856606763 46.60966696460841 34.14330995973516 0 0 0
2009 3 3 0 35.92128129436672 48.497732878168605 32.72231951040702 0 0 0
1992 3 9 0 30.300447015597832 45.33644734783964 34.444176610988904 0 0 0
70 1 9 0 30.483346555888584 48.613188110349626 30.083011681316208 0 0 0
71 1 7 0 31.404452313331245 48.46289472132493 30.30869455593589 0 0 0
2288 4 9 0 40.51563940139111 45.698168538681415 30.51285138536887 0 0 0
2289 4 7 0 40.86219554681112 46.41083355536352 29.964777680396384 0 0 0
2007 3 7 0 36.033330329556385 46.8668757571307 34.7138434149099 0 0 0
605 1 3 0 38.75737249395068 45.66976645385563 34.61961550507633 0 0 0
604 1 8 0 39.692531012696314 45.89575812439973 34.21497093620976 0 0 0
2016 3 3 0 36.70722488236235 50.84377001595066 32.755483901826416 0 0 0
2008 3 8 0 36.00396052395832 48.0489075857243 31.785216359460307 0 0 0
2011 3 1 0 36.946415057047986 48.36482399022685 33.0914459381777 0 0 0
607 1 1 0 37.98106046765017 45.76519433133247 33.89161441335988 0 0 0
2018 3 1 0 37.27923103604402 50.510903778892335 33.65895611097275 0 0 0
109 1 4 0 41.58474149873277 50.320004233848465 31.353894123830244 0 0 0
602 1 9 0 38.02489125465853 47.83424009267196 35.42144576399306 0 0 0
599 1 4 0 38.57541875620627 46.60000510141644 35.836219887636545 0 0 0
108 1 3 0 40.79259701454686 49.39444410129481 30.406873105221873 0 0 0
110 1 1 0 39.967533598893155 48.87715808021628 30.877562129157468 0 0 0
2863 4 12 0 41.61836382624174 50.61886132006026 35.335455723955285 -2 3 3
117 1 1 0 41.57565224809974 49.84727252645098 33.507396175802356 0 0 0
115 1 3 0 41.971092523218076 49.48872892993634 32.51128937091416 0 0 0
114 1 8 0 41.475723124260455 48.58855791889003 32.354506841632926 0 0 0
2015 3 8 0 37.2850769343894 50.847834450823115 31.809331301337792 0 0 0
600 1 1 0 40.19323931080428 47.62078494990638 35.67294246550209 0 0 0
99 1 7 0 38.30470197610693 48.299948481862344 30.58357907631988 0 0 0
98 1 9 0 38.17273146868981 47.72536712650545 29.83880461821667 0 0 0