LAMMPS data file via write_data, version 23 Jun 2022, timestep = 1000000

2988 atoms
18 atom types
3044 bonds
16 bond types
5800 angles
31 angle types

29.905423246477405 60.20157675352391 xlo xhi
26.9909232464774 57.287076753523905 ylo yhi
29.874425246477408 60.17057875352391 zlo zhi

Masses

1 1.00794
2 1.00794
3 12.0107
4 12.0107
5 1.00794
6 1.00794
7 1.00794
8 1.00794
9 15.9994
10 12.0107
11 12.0107
12 1.00794
13 15.9994
14 15.9994
15 12.0107
16 12.0107
17 1.00794
18 15.9994

Pair Coeffs # lj/cut

1 0.038 2.44997
2 0.038 2.44997
3 0.039 3.87541
4 0.039 3.87541
5 0.038 2.44997
6 0.038 2.44997
7 0 0
8 0.038 2.44997
9 0.228 2.85978
10 0.148 3.61705
11 0.039 3.87541
12 0.038 2.44997
13 0.228 2.85978
14 0.228 2.85978
15 0.148 3.61705
16 0.148 3.61705
17 0 0
18 0.228 2.85978

Bond Coeffs # harmonic

1 340.618 1.105
2 340.618 1.105
3 322.716 1.526
4 340.618 1.105
5 340.618 1.105
6 340.618 1.105
7 384 1.42
8 540.634 0.96
9 283.092 1.52
10 340.618 1.105
11 615.322 1.23
12 322.716 1.526
13 340.618 1.105
14 384 1.42
15 540.634 0.96
16 384 1.42

Angle Coeffs # harmonic

1 39.5 106.4
2 44.4 110
3 39.5 106.4
4 44.4 110
5 39.5 106.4
6 46.6 110.5
7 44.4 110
8 44.4 110
9 70 109.5
10 46.6 110.5
11 44.4 110
12 58.5 106
13 39.5 106.4
14 57 109.5
15 57 109.5
16 46.6 110.5
17 45 109.5
18 50 120
19 68 120
20 46.6 110.5
21 44.4 110
22 55 120
23 39.5 106.4
24 70 109.5
25 57 109.5
26 70 109.5
27 57 109.5
28 80 109.5
29 70 106
30 80 109.5
31 58.5 106

Atoms # full

986 2 4 0 32.036497460344954 28.270975712402496 33.65798854361621 0 0 1
985 2 3 0 33.08301561664587 29.364160060613887 33.95980978280697 0 0 1
987 2 1 0 33.96983583893982 28.905649258903477 34.422495405222136 0 0 1
988 2 5 0 31.855497340115466 28.607009922630482 32.59345178360785 0 0 1
989 2 14 0 31.038283841190136 28.586904771435577 34.54165139103621 0 0 1
3018 14 12 0 30.377834943776303 29.912709712734024 33.119422138645255 -8 -2 2
979 2 4 0 33.4836519555253 30.191344463409404 32.78777305842531 0 0 1
984 2 8 0 32.626769517105465 29.85936216411661 34.83937160915295 0 0 1
1760 3 5 0 30.93167241861696 31.281782757406372 34.42064936317957 1 0 0
981 2 5 0 32.72900034367452 30.22339281892353 31.936671743718136 0 0 1
3012 14 16 0 29.960010833460508 29.196046330272274 33.83129319705628 -8 -2 2
982 2 9 0 33.68320946018579 31.57169440318852 33.13654764102917 0 0 1
978 2 3 0 34.82883489130916 29.714694974048093 32.287770008653204 0 0 1
980 2 1 0 35.14747005070826 28.735822024555098 32.69883601984357 0 0 1
983 2 7 0 34.31208616097198 31.472489102179225 33.79419326788359 0 0 1
1004 2 7 0 33.88265751177222 56.656401880314135 60.13957900474496 0 -1 0
977 2 8 0 35.55945363904512 30.33335734727859 32.74666012077649 0 0 1
1032 2 7 0 31.946956511225626 32.09137471437217 30.290344651614696 0 0 1
992 2 3 0 32.632778906369786 57.16151216488957 33.86218647325256 0 -1 1
991 2 8 0 32.81295731703637 57.028496739505414 34.95658179046885 0 -1 1
994 2 1 0 33.62040943303593 57.02926395431058 33.43501759233546 0 -1 1
419 1 5 0 33.44010840050725 33.28001630512706 38.47626531435675 0 0 0
2034 3 9 0 34.353674835028585 26.994377872820614 37.728324553437496 0 1 0
654 1 3 0 39.581165470915025 29.260353069222365 35.136776093102036 0 0 0
656 1 1 0 40.47054985374541 29.374455259272516 34.706851787161206 0 0 0
1935 3 5 0 41.64288157067416 30.44845900927219 30.61745826654238 0 0 0
1933 3 4 0 42.15034294580683 31.368736680939616 31.049288698495197 0 0 0
653 1 8 0 39.89612034025835 28.53373821793779 35.8833903286605 0 0 0
659 1 7 0 37.35330251451201 29.816411451800846 33.91000817031453 0 0 0
658 1 9 0 38.08004514484647 29.401126754589768 33.375098357551295 0 0 0
655 1 4 0 38.658286284711195 28.51758920081496 34.25371806004936 0 0 0
650 1 5 0 39.28409721396818 31.197137018612022 34.436469312304055 0 0 0
648 1 4 0 39.172256555438615 30.74992326239529 35.41252485784832 0 0 0
642 1 1 0 38.644370649503685 33.578382925007325 34.8081066297373 0 0 0
1940 3 4 0 39.697514684993536 32.28830696594778 31.33330972250575 0 0 0
1942 3 5 0 39.247377440287565 31.61108560585739 32.08024077057621 0 0 0
657 1 5 0 37.8535244154421 27.9878354876963 34.840180675330416 0 0 0
651 1 9 0 37.81673877956769 30.866291488665087 35.99406137143077 0 0 0
640 1 3 0 39.63742231650245 33.74569204930746 35.224001263756435 0 0 0
647 1 3 0 40.10874407922039 31.43475119573092 36.392981851579904 0 0 0
652 1 7 0 37.135697726213415 31.19801103180651 35.36441664792059 0 0 0
2035 3 7 0 33.81067404329665 56.52529158789442 37.98374604836529 0 0 0
649 1 1 0 41.1202891182746 31.32226523566124 36.01317689516357 0 0 0
639 1 8 0 40.242508785168496 33.16062842718823 34.505612854237135 0 0 0
646 1 8 0 40.250412184766944 30.855421410190527 37.35476300585043 0 0 0
641 1 4 0 39.742458110113596 32.92870660530282 36.57491196143297 0 0 0
1936 3 9 0 42.65420042950395 30.840455848526958 32.291592398100384 0 0 0
1928 3 5 0 44.94142120581157 30.63853697204472 30.858085107156448 0 0 0
1697 3 5 0 44.77704540673704 28.47393059834623 32.12496676773799 0 0 0
1688 3 4 0 45.29306494973184 29.140670992369902 34.743859376528924 0 0 0
1690 3 5 0 46.43653021833241 29.1950136486093 34.62468535679924 0 0 0
1698 3 14 0 46.785986820199426 28.417631843642813 32.310214090307014 0 0 0
1695 3 4 0 45.52416510511479 27.82148733393996 32.60228127301375 0 0 0
1691 3 9 0 44.78482818355293 30.193445601616823 33.963616145438586 0 0 0
1920 3 1 0 46.70227773821178 32.847129700232244 29.986705001951368 0 0 0
1692 3 7 0 44.29743373893539 30.751676670269187 34.614394381458155 0 0 0
1694 3 3 0 45.05271126582262 27.80381054651207 34.04294006172384 0 0 0
1711 3 5 0 46.97173384009849 27.976654336562433 29.997203682328408 0 0 0
1911 3 3 0 47.95066597902327 32.859570995555835 32.47895841842205 0 0 0
1913 3 1 0 46.92164592991766 32.883896898545096 32.859317444213474 0 0 0
1696 3 1 0 45.75934926253646 27.091887067565715 34.49904497664668 0 0 0
2914 8 16 0 47.92356326025065 27.534318670750565 32.54385742789508 3 5 8
1693 3 8 0 43.94986989399382 27.477417490403198 34.08679267022208 0 0 0
1712 3 14 0 48.49331246962625 27.100800430993004 31.273868529442563 0 0 0
1926 3 4 0 44.323203660879976 30.576857571740824 29.978246253480613 0 0 0
1921 3 5 0 46.78791541302812 30.01748757807686 29.986893913961165 0 0 0
1937 3 7 0 42.66630708830969 29.884616378840562 32.12152645878234 0 0 0
1704 3 5 0 45.16045515628475 27.34355621389873 30.11342966116526 0 0 0
1709 3 4 0 47.629833636067644 27.09504493072031 30.098549555947386 0 0 0
1918 3 3 0 47.375736296495745 32.03046577584058 29.955380309787284 0 0 0
1930 3 7 0 43.22844486934517 29.214825770602236 59.34076506223427 0 0 -1
1929 3 9 0 43.9027477274947 29.289604130427602 60.05409803001864 0 0 -1
1906 3 1 0 48.0821067393923 32.187739710903614 35.67602328178765 0 0 0
2917 8 12 0 48.6866793683222 29.28878130140071 33.23926130583972 3 5 8
2915 8 11 0 49.05209888259297 28.300022115505346 33.1675502922769 3 5 8
1914 3 5 0 47.55136478315022 30.8570122866391 31.670273503064024 0 0 0
1912 3 4 0 47.952461982979656 31.75437238785858 31.359851872614932 0 0 0
1907 3 5 0 48.913134706475034 31.419154525365016 33.648138593143265 0 0 0
1915 3 9 0 49.321625913087935 31.37025657546532 31.074252474469045 0 0 0
2918 8 12 0 49.86367244735589 28.25813449540332 32.51223246238341 3 5 8
1738 3 1 0 53.28657560912994 29.5178196089547 30.85163119199688 0 0 0
1718 3 5 0 48.9046359665399 28.95309197084438 59.65961340866831 0 0 -1
1748 3 7 0 54.94244884900043 32.65498594180608 32.370079300518285 0 0 0
1747 3 9 0 54.58495150623749 32.16476421097569 33.170427520684285 0 0 0
208 1 1 0 54.50521191509735 33.40158111099922 30.566685768980438 0 0 0
1724 3 1 0 50.98073925882777 28.04927064648946 59.966381759879496 0 0 -1
1758 3 4 0 60.15729082265953 31.33169189122538 34.82816388606659 0 0 0
1761 3 14 0 59.636272903829344 30.00519861442322 34.83345930690232 0 0 0
1739 3 5 0 55.25980401495703 31.13911540625989 30.67943917419105 0 0 0
1031 2 9 0 31.072708591547485 31.716258629702228 30.45779014060873 0 0 1
3014 14 12 0 59.43109434733435 27.6321811419106 32.56410913136249 -9 -2 2
1736 3 3 0 54.218280084236724 29.39482563902802 30.286460176754538 0 0 0
1737 3 4 0 55.29066678210276 30.056639548021735 30.865431585512766 0 0 0
1742 3 8 0 55.888743744282934 28.956885047799005 32.602395224933474 0 0 0
3009 14 11 0 59.17014635321219 28.24500865202092 33.407394690797474 -9 -2 2
1757 3 3 0 59.415778266351225 32.31609564949413 33.99259564224458 0 0 0
1759 3 1 0 59.67642790296149 31.927322126699984 32.931865511500526 0 0 0
3010 14 12 0 58.99932584826549 27.229144548358846 35.35954475061524 -9 -2 2
3006 14 11 0 58.562937694942946 27.222123284762763 34.317417204571896 -9 -2 2
3013 14 12 0 58.46904017629204 29.010607231495246 32.98181982717754 -9 -2 2
1745 3 1 0 54.2250387795812 29.46524433552812 32.74843675716008 0 0 0
1744 3 4 0 55.59239120835275 31.07040745516397 33.24777701342075 0 0 0
1746 3 5 0 55.78081897358403 30.8926275808106 34.34515980189451 0 0 0
1752 3 1 0 57.68638869711106 31.18411493496138 32.28589844386864 0 0 0
1750 3 3 0 57.04007201547245 31.70470621864602 32.97056297610961 0 0 0
3011 14 12 0 57.48924914503914 27.35763792910842 34.40246927554154 -9 -2 2
1743 3 3 0 55.22407419367309 29.815201584470024 32.36877340076139 0 0 0
1751 3 4 0 57.846238733246295 32.29626625198402 34.24704835190993 0 0 0
1753 3 5 0 57.634024982016925 31.77909099605347 35.15172807151527 0 0 0
1749 3 8 0 56.81481316342429 32.62953461266923 32.405765613635396 0 0 0
1740 3 9 0 56.43392138306456 29.40976788870498 30.327089054258145 0 0 0
1735 3 8 0 54.42478216115913 28.246727353389307 30.012405951900107 0 0 0
1754 3 9 0 57.37039642122403 33.591578168194765 34.4405022163885 0 0 0
1956 3 5 0 34.97153443581107 33.58367211731522 31.47716200983283 0 0 0
1962 3 1 0 33.58921637671178 35.11187520417787 32.793991787032894 0 0 0
1954 3 4 0 35.23560496390857 34.67699953009607 31.340396297229947 0 0 0
1960 3 3 0 34.19487958303348 35.63339310831134 31.980480489339783 0 0 0
2971 11 12 0 30.75341555034515 36.93915690007506 30.940597890284813 1 0 1
1959 3 8 0 34.84736769728899 36.40601840538511 32.46131376519622 0 0 0
1963 3 5 0 32.6861852913623 37.01834632487892 31.914489797046873 0 0 0
1961 3 4 0 33.18444365210406 36.41068750324587 31.18752732752497 0 0 0
1964 3 14 0 32.21660092026902 35.63736124041691 30.40743614349188 0 0 0
2959 11 16 0 30.938614872524845 36.180880693803246 30.25872817898515 1 0 1
1970 3 5 0 35.70475990020224 37.898224430678795 31.181000452739525 0 0 0
1968 3 4 0 34.79690140948288 38.458744223065366 30.889905946340104 0 0 0
1971 3 9 0 34.378918393684245 38.96735989062044 32.18795820961755 0 0 0
2981 12 12 0 31.01469364509993 38.65427913119915 32.86408461585809 1 0 0
433 1 5 0 31.954540790433178 35.65052994268654 36.89659486245327 0 0 0
427 1 9 0 34.34345312948058 33.82659171765574 34.4117137074006 0 0 0
434 1 9 0 32.54486045108981 37.063060163714695 35.34512635673523 0 0 0
435 1 7 0 31.574672074716904 37.16302528832328 35.3071030045676 0 0 0
1957 3 9 0 35.31976398884987 34.8669594791657 29.92781110107245 0 0 0
1952 3 8 0 37.12309303521432 35.61740196107742 31.370505457179114 0 0 0
1953 3 3 0 36.62967498695209 34.71187140549227 31.862658823129074 0 0 0
1955 3 1 0 36.70816517140405 34.655185737978876 32.94812121981561 0 0 0
426 1 5 0 32.578694111628366 33.810838497292536 35.670945219021874 0 0 0
424 1 4 0 33.6862024284875 33.95595786255587 35.699686152446375 0 0 0
1958 3 7 0 36.016562975115065 34.26074694377016 59.928013925395014 0 0 -1
1939 3 3 0 41.204551067998224 32.522222236997045 31.408974207004213 0 0 0
1949 3 5 0 37.37809528481101 33.618995808240285 30.20481579633116 0 0 0
428 1 7 0 34.90643138604039 33.06833177394823 34.483645698935966 0 0 0
1951 3 7 0 37.41243911768415 31.896734205600957 32.25434781241805 0 0 0
1950 3 9 0 36.81235672639895 32.317051724141464 31.664181939857677 0 0 0
1946 3 3 0 38.926730874892556 33.50185954195785 31.522045445350532 0 0 0
1947 3 4 0 37.37104484687909 33.47125121280845 31.27873524185451 0 0 0
1948 3 1 0 39.117066899499164 33.86133983002945 32.55786691005069 0 0 0
926 2 14 0 41.47142452801597 37.56470170881639 31.6948741163372 0 0 1
632 1 8 0 40.16799924698948 36.31733786091685 33.547417754494475 0 0 0
625 1 8 0 39.09229913208099 38.52155238988069 32.913098664799165 0 0 0
626 1 3 0 39.349767401551624 38.64858999734907 34.02904116980108 0 0 0
620 1 4 0 40.78789819285485 39.04825021852094 34.032602757220864 0 0 0
635 1 1 0 38.65260503484465 35.608098946560084 33.94952600685244 0 0 0
628 1 1 0 38.73006572195824 39.33854844495988 34.43902903699636 0 0 0
633 1 3 0 39.4981766160694 36.164554194843845 34.414850661570476 0 0 0
622 1 5 0 41.26462762274014 38.05792340769955 34.19942129203172 0 0 0
627 1 4 0 39.08865289686673 37.47893032599659 34.99107886382631 0 0 0
634 1 4 0 40.14256478951868 35.216321530024416 35.485208253936065 0 0 0
1938 3 8 0 41.37607853507968 33.27667701805848 30.572483578076994 0 0 0
1941 3 1 0 41.513332664686324 33.03503575470887 32.39470709858097 0 0 0
929 2 3 0 41.71273986621061 36.13143690010811 60.010941114828725 0 0 0
928 2 8 0 40.65966329348146 36.266151367724305 29.89193135231927 0 0 1
931 2 1 0 41.9671156345497 35.05227480593057 60.07932852851543 0 0 0
3019 15 16 0 42.07924616203642 38.858872717149005 31.993101037914414 27 -21 0
1910 3 8 0 47.953469359778936 33.89059116383774 31.916132654580803 0 0 0
923 2 4 0 42.36361964153992 36.76640000830362 30.892106373264017 0 0 1
3031 15 12 0 42.95977374496282 38.752820953443894 32.671295726328 27 -21 0
921 2 8 0 42.814452125033384 36.27243019244727 32.9013173956562 0 0 1
924 2 1 0 42.727669463242876 34.80937776777287 31.80334469516537 0 0 1
925 2 5 0 43.16645005734656 37.44405930639972 30.519896421092987 0 0 1
922 2 3 0 43.051177528185335 35.891761576850655 31.894554290428335 0 0 1
916 2 4 0 44.61500146006439 36.000632618335835 31.766601683978536 0 0 1
920 2 7 0 45.18143182294361 34.33303705482451 32.118288383125986 0 0 1
914 2 8 0 45.83789597382695 34.703548291174215 30.78487021171679 0 0 1
918 2 5 0 45.07888595444235 36.95427246835059 32.07989020569022 0 0 1
915 2 3 0 45.176225933839085 35.61371208859788 30.426040647938986 0 0 1
919 2 9 0 45.130190341473735 35.03619189754859 32.69173531662207 0 0 1
911 2 5 0 46.73244637672657 36.94038274461899 30.305273346240924 0 0 1
281 1 7 0 46.91472241341506 36.42467538346048 37.292416550223585 0 0 0
276 1 3 0 45.976769437318566 38.66643266281499 34.981477015702495 0 0 0
275 1 8 0 45.045558365773005 38.1651020230702 34.554322760631365 0 0 0
270 1 4 0 47.14988665274091 38.597780361244276 33.945987034647445 0 0 0
268 1 8 0 46.57139815632564 38.70036822033961 31.977345657803856 0 0 0
278 1 1 0 45.82583579175187 39.710306227981306 35.1347616093327 0 0 0
912 2 14 0 45.48180879452787 37.99191411096483 59.63537230744791 0 0 0
909 2 4 0 45.97332732481069 36.620175943693525 59.899464799755535 0 0 0
917 2 1 0 44.34964394181993 35.19313065646142 29.880301847534373 0 0 1
1904 3 3 0 48.413674674804255 33.03707464419054 35.093675059006635 0 0 0
1903 3 8 0 47.73494896294938 33.9185422456922 35.079680399286374 0 0 0
1905 3 4 0 48.85533737006084 32.57611141383333 33.67036908279138 0 0 0
1916 3 7 0 49.28146410968742 31.049410233697504 30.13501622289518 0 0 0
274 1 7 0 48.30440137311161 37.367112987311124 33.29139013457151 0 0 0
273 1 9 0 47.53611187241581 37.26293131339847 33.863368380328104 0 0 0
1901 3 9 0 49.85945579278405 34.84028936231422 35.42811926456254 0 0 0
1908 3 9 0 50.16701530446174 32.98078310279687 33.31156756459059 0 0 0
1902 3 7 0 49.697394906213475 34.78223758161158 34.45256496998122 0 0 0
1909 3 7 0 50.47450227172676 33.781313675957186 33.71687183021414 0 0 0
196 1 9 0 52.62248438734824 37.27614096660198 32.689927208224844 0 0 0
193 1 4 0 53.2853542873022 36.062042324638355 32.9023350787146 0 0 0
260 1 7 0 49.71443042611865 37.355288243680604 30.529528171934963 0 0 0
195 1 5 0 52.55040555693359 35.346997660035456 33.06565953992356 0 0 0
203 1 9 0 52.12777638164707 34.766602440642245 30.803025216081615 0 0 0
259 1 9 0 50.51319467466316 37.736274171111695 30.818915013978117 0 0 0
204 1 7 0 51.990132517461504 33.895251270754216 30.419893687994005 0 0 0
198 1 8 0 54.74553747349984 34.797134738539725 32.2311269650233 0 0 0
200 1 4 0 53.528786411024 35.16720577998808 30.492752640958418 0 0 0
202 1 5 0 53.446321392596616 35.9618603828012 60.046989382385604 0 0 -1
199 1 3 0 54.245824640602706 35.655256103985664 31.802333920755128 0 0 0
206 1 3 0 53.97257772270311 33.96810230354874 60.138152660414065 0 0 -1
197 1 7 0 52.325499016437455 37.20528150878242 31.745768083346434 0 0 0
186 1 4 0 53.50275829984959 35.82035737284403 35.59999555747432 0 0 0
1900 3 5 0 50.41607287146083 32.94738975863779 35.65636962915149 0 0 0
188 1 5 0 52.519270490320274 36.391468176427665 35.68012386681262 0 0 0
192 1 3 0 54.093337179460946 36.39922152007334 34.248435965828655 0 0 0
194 1 1 0 54.25162787181892 37.41624145275983 34.43379817945487 0 0 0
201 1 1 0 54.87256288179968 36.394216892899365 31.508563621900148 0 0 0
189 1 9 0 53.231936338980745 34.45404693263158 35.57395702975341 0 0 0
1755 3 7 0 56.469672477905206 33.68458990990581 34.23218431771803 0 0 0
1756 3 8 0 59.759579129624086 33.29087249140391 34.20878968220407 0 0 0
219 1 8 0 58.56419986815166 33.410330949083985 30.379001028871944 0 0 0
224 1 14 0 29.935968461820174 35.19354697398209 30.502394002424666 1 0 0
191 1 8 0 55.204677688940066 36.09912384018207 34.079740458696484 0 0 0
226 1 8 0 59.41272746203525 35.95949500747628 32.55440587183979 0 0 0
2988 12 12 0 59.661492635079824 37.55720055111351 34.50244868094411 0 0 0
222 1 1 0 57.16934455549561 34.27274353741995 31.052285279281747 0 0 0
227 1 3 0 58.5737983332974 36.21000656229749 31.94541486488495 0 0 0
229 1 1 0 57.68414176835249 35.79542071410738 32.40149522347723 0 0 0
228 1 4 0 58.36569561203229 37.74948282892791 32.1079385080237 0 0 0
234 1 3 0 57.12267341009321 38.11986761103016 31.20598272783646 0 0 0
221 1 4 0 58.836473852998616 35.60332543266719 30.529308757542072 0 0 0
231 1 14 0 57.95839131626481 37.93559870987605 33.42988049146918 0 0 0
233 1 8 0 56.367206771869334 38.06908212100783 31.96972113219147 0 0 0
220 1 3 0 57.961530619130436 34.32697563243878 30.31270391209754 0 0 0
230 1 5 0 59.269484016845084 38.411666026868176 32.02264325328002 0 0 0
236 1 1 0 56.84171843494931 37.34275175803494 30.653474266321524 0 0 0
2982 12 16 0 59.04646512660945 38.471824249664806 34.262057504765785 0 0 0
1192 2 14 0 58.30038220880631 38.786516873885574 35.39172024266048 0 0 0
190 1 7 0 53.79336517563009 34.19073989107948 34.921938001706 0 0 0
212 1 8 0 56.095468619398474 35.55043909034309 59.74131083413229 0 0 -1
1972 3 7 0 33.40641872426414 38.97537505523424 32.09909023602351 0 0 0
2977 12 12 0 31.929043550965435 40.270970144067206 31.403939091383393 1 0 0
1984 3 5 0 33.694712887102334 41.50497262857718 32.35801800535497 0 0 0
1982 3 4 0 33.50734781636654 42.20139694294091 31.609643894599177 0 0 0
1985 3 14 0 32.147551679544065 42.53248188072949 31.33877257582901 0 0 0
1988 3 3 0 34.08466065094762 43.526455175115835 32.26488306802563 0 0 0
2986 12 12 0 31.92084032312817 42.04376947035004 33.372710399033046 1 0 0
2974 12 16 0 31.392493366714522 41.99200876457196 32.4067138808098 1 0 0
2975 12 11 0 31.093011656503418 40.600866033660566 32.01364634733408 1 0 0
1990 3 1 0 34.18112774182082 44.37086399943276 31.583544743617065 0 0 0
2976 12 11 0 30.85177820109539 39.68132169720975 33.20052256777952 1 0 0
2980 12 12 0 31.631643932340594 39.95289974180699 33.85924402472504 1 0 0
1992 3 9 0 35.31717997938448 42.41031393500488 33.989605319301475 0 0 0
1987 3 8 0 33.30624042106649 43.81282111118761 32.981637664874576 0 0 0
1989 3 4 0 35.38656351110134 43.37117675877899 32.9586438412204 0 0 0
1997 3 1 0 35.17003838505712 45.047056113070646 34.30998503330029 0 0 0
453 1 1 0 34.82933450368288 42.639457603695405 36.41851144658775 0 0 0
1995 3 3 0 35.96471910396903 44.58236799079188 33.72025482427269 0 0 0
1403 2 6 0 30.540947174431288 43.84991761279264 34.22002772246025 1 0 1
1993 3 7 0 34.44970845795878 42.60196239651953 34.36544447335222 0 0 0
1994 3 8 0 36.60627399604173 44.18081340272359 34.51317228595087 0 0 0
1991 3 5 0 36.13022908933226 43.14977605700738 32.2659498793992 0 0 0
2978 12 12 0 30.20994147101092 40.58627868274721 31.27068796345514 1 0 0
1998 3 5 0 35.76339127084736 46.22091328839609 32.25610890749018 0 0 0
1977 3 5 0 35.80602365908122 40.75627611547368 31.596291976659934 0 0 0
1975 3 4 0 35.45837578471318 40.9903076008641 30.576153658908577 0 0 0
1981 3 3 0 34.37234105852657 42.081881213429256 30.38842550572407 0 0 0
1983 3 1 0 34.81595682648295 43.084366643644586 30.12809098692292 0 0 0
623 1 14 0 41.09759092467408 39.536012420074265 32.7352292522752 0 0 0
3023 15 12 0 41.49168169668809 39.402668993799324 30.08713280267362 27 -21 0
619 1 3 0 41.00428088675827 40.12124903274439 35.139505969149575 0 0 0
615 1 5 0 39.284463882078875 41.506106519470364 34.594268013650066 0 0 0
610 1 7 0 37.6973784549953 44.4637515454166 36.19358223972494 0 0 0
2289 4 7 0 42.152990830947175 45.69620729568774 59.38208586983217 0 0 -1
616 1 9 0 41.14489668137614 42.3401141639846 34.12638350755873 0 0 0
617 1 7 0 42.001243965668344 42.380902982433426 34.48328498287595 0 0 0
608 1 5 0 39.556985688480296 43.82451344348311 34.98063280709138 0 0 0
613 1 4 0 40.33793395218245 41.468691433795826 34.977498126295345 0 0 0
2287 4 5 0 41.30159299992614 43.46283789635032 30.55479633421506 0 0 0
1999 3 9 0 37.63616408456941 45.24196297008183 32.085397946680665 0 0 0
2000 3 7 0 38.48850314676041 45.633510799862215 32.20866492249288 0 0 0
2288 4 9 0 41.38080866812476 45.11957658247204 59.566882768616836 0 0 -1
272 1 5 0 48.05245797487014 39.03280667957771 34.38730282678608 0 0 0
3022 15 12 0 41.79334658924948 40.89971478286727 31.00189251321911 27 -21 0
3020 15 11 0 42.17431524179828 39.88096347822984 30.791012126458025 27 -21 0
3025 15 12 0 44.22922372278125 39.23380432521861 30.9613228229791 27 -21 0
3021 15 11 0 43.57923123871716 39.864009112756946 30.21781571355128 27 -21 0
2294 4 5 0 43.639811385038485 42.64921549319207 31.549488825962793 0 0 0
269 1 3 0 46.96008258737109 39.39909176137189 32.682667512844056 0 0 0
271 1 1 0 46.10515570332299 40.12219861607578 32.76534767763312 0 0 0
3026 15 12 0 44.040472029628425 40.83831824125236 30.25197450559813 27 -21 0
2292 4 4 0 43.762668853100756 43.75757533319374 31.401722590676684 0 0 0
2301 4 5 0 45.63782065123573 42.17191134301344 32.74669638100766 0 0 0
2298 4 3 0 45.18949096850285 44.121518526550574 31.80304611314473 0 0 0
2299 4 4 0 45.82195711111498 43.20207839036805 32.87712508643929 0 0 0
2302 4 14 0 47.18199877012162 43.54455926828227 32.68450121328156 0 0 0
2305 4 3 0 45.50233692079823 43.639194905829584 34.216966962187044 0 0 0
2309 4 9 0 44.46829284200736 41.596992426074706 34.64463249407895 0 0 0
2300 4 1 0 45.836110371317815 43.96735239084458 30.88247211033435 0 0 0
2306 4 4 0 45.33302862603097 42.55129369707835 35.242399457299584 0 0 0
2295 4 9 0 42.87247086233246 44.35703601778857 32.32656381039763 0 0 0
2291 4 3 0 43.411245640780315 44.02850788599075 29.963358461446806 0 0 0
2310 4 7 0 43.824430719644155 41.30076670573463 35.31157930566926 0 0 0
266 1 14 0 47.9722887450793 41.50474678080258 31.74575323222592 0 0 0
2821 1 12 0 47.71014862164044 41.969162435502454 33.78236860658324 0 0 0
2809 1 16 0 48.10849601098364 42.50813646872137 32.85663177969339 0 0 0
2307 4 1 0 46.001187405978015 44.59940009709344 34.49677477078079 0 0 0
2304 4 8 0 44.6309923945358 44.15258419211563 34.13456022654846 0 0 0
2308 4 5 0 46.27356280832396 41.99752432832766 35.48955652359464 0 0 0
2297 4 8 0 45.30155748988203 45.21293407809718 32.052841465826624 0 0 0
2783 4 1 0 48.23282477523931 44.77156197352778 30.506416965481314 0 0 1
258 1 5 0 50.223194871169724 38.71232013853654 32.63503972249294 0 0 0
261 1 8 0 48.18354647201517 38.87601118906169 30.673838471808516 0 0 0
263 1 4 0 48.27980533324215 40.20365675412586 32.22174621755642 0 0 0
256 1 4 0 50.2807704414892 38.92298349904956 31.54620810656384 0 0 0
265 1 5 0 48.88778427275531 40.15258111134719 33.061107615364904 0 0 0
2810 1 11 0 49.538506616152674 43.16635005564228 32.993485451310356 0 0 0
262 1 3 0 48.9349076312548 39.51437867369431 31.036129271788795 0 0 0
264 1 1 0 49.07599554646529 40.26791668500111 30.267980632857917 0 0 0
257 1 1 0 52.05334023334233 39.696831827232245 31.865595118472655 0 0 0
255 1 3 0 51.409887314361214 39.802883846323084 31.083124656011307 0 0 0
2813 1 12 0 49.82461977262014 42.90123027049487 32.08535297502441 0 0 0
2814 1 11 0 51.97583349382571 42.98007379254626 33.61089692572433 0 0 0
2817 1 16 0 52.89414815175156 43.048678824399765 34.840866829117004 0 0 0
254 1 8 0 50.96961920338816 40.83047435177155 31.260284585700138 0 0 0
2819 1 12 0 52.37511132485491 42.08321762671979 33.021455264523176 0 0 0
2818 1 12 0 52.05462408957739 43.83789892730523 33.035698728454875 0 0 0
2811 1 11 0 50.54665193159323 42.72657612705076 34.068358259110965 0 0 0
1213 2 14 0 52.40471383295189 42.12604368686801 35.87689061468197 0 0 0
250 1 1 0 53.71892271532252 40.640402403131326 30.743370689218438 0 0 0
2815 1 12 0 50.41501492384657 41.66715759977155 34.32813668130803 0 0 0
2812 1 12 0 49.66450927351214 44.29094944181974 32.91671463312629 0 0 0
2816 1 12 0 50.19599255746514 43.42950721171381 34.92408829798222 0 0 0
2823 1 12 0 54.01347101109815 42.76864713698196 34.68449438413167 0 0 0
248 1 3 0 53.52780004461126 40.28416123677654 60.072139059335534 0 0 -1
2777 4 5 0 50.73662301012426 44.55602578277934 30.330647842315397 0 0 1
1402 2 14 0 30.18791896674647 42.806248349950536 32.44449736046854 1 0 1
1401 2 5 0 31.378999840738647 44.537988563974956 32.788462712274814 1 0 1
1399 2 4 0 30.443687539835818 44.02900381509364 33.148673720562016 1 0 1
1389 2 7 0 55.08118831204065 45.072472383002335 30.618431690776248 0 0 1
235 1 4 0 57.119394704847544 39.287781383471405 30.250838236003773 0 0 0
2984 12 12 0 59.7300692054952 40.765737412688665 34.60461747755982 0 0 0
2979 12 11 0 59.76295657182702 39.90687901116341 33.815636260632516 0 0 0
2983 12 12 0 59.1695824590205 40.2778402250196 33.012884279433415 0 0 0
243 1 1 0 55.56194737954736 39.933509134119 31.451515963031948 0 0 0
237 1 5 0 57.90164802621179 39.950800514287096 30.71332863118089 0 0 0
1392 2 4 0 58.267611551157785 44.40508641987526 32.59208594607162 0 0 1
1394 2 5 0 58.221972485976664 44.23190137918305 31.513708404581436 0 0 1
1396 2 7 0 57.228385163266495 42.91920528893297 32.95343429490725 0 0 1
1398 2 3 0 59.59062541022635 45.018169957247935 33.057080035105244 0 0 1
1395 2 9 0 58.11331094026135 43.242819338335124 33.26016185785296 0 0 1
1388 2 9 0 55.977301521779125 44.96244096431455 30.872118427760647 0 0 1
1390 2 8 0 56.42238241504023 44.65693506246063 33.680006091632656 0 0 1
1391 2 3 0 57.02343921617599 45.263050266402715 33.01580914785773 0 0 1
1397 2 8 0 59.43834469490852 45.27267665114314 34.12377388014742 0 0 1
241 1 3 0 55.74252664919392 39.95583082857293 30.327559586256655 0 0 0
1400 2 1 0 59.791426693444926 45.89763659128545 32.5226157176005 0 0 1
1208 2 8 0 54.03237085284799 40.093942430085875 36.70890343977264 0 0 0
71 1 7 0 30.028434698337747 45.94672391369545 30.79267758453185 0 0 0
2216 4 1 0 33.32406904120927 50.28710177964946 32.68299157635629 0 0 0
2213 4 8 0 31.866195588218805 50.6964409314016 31.91959665130412 0 0 0
70 1 9 0 30.783884052258426 45.626477939841934 30.254443158984273 0 0 0
2214 4 3 0 32.89920346594042 51.17724541596658 32.167940940596075 0 0 0
2223 4 1 0 34.699227299830675 50.0134299377324 59.957203941415415 0 0 -1
2220 4 8 0 32.99846961580827 49.766996578044626 30.2275596256627 0 0 0
2221 4 3 0 33.72128024547996 50.532782074373266 29.884484149743407 0 0 0
62 1 5 0 30.631711851249225 49.41673309668185 60.096857547483125 0 0 -1
54 1 1 0 60.09862800679233 49.994619485595685 32.340564086319155 -1 0 0
2011 3 1 0 35.60770220387601 49.19358812101619 35.47565676302081 0 0 0
2004 3 1 0 37.00949797303184 46.44607736027155 34.90778967897699 0 0 0
2018 3 1 0 36.696296526093235 51.28773336772659 33.1112098506849 0 0 0
2002 3 3 0 37.05321718354431 46.810966436504756 33.895443572692535 0 0 0
2001 3 8 0 38.143382106182905 46.938318379113625 33.70513502806384 0 0 0
2209 4 1 0 33.24503655160769 50.97189637079602 34.63229296952458 0 0 0
2206 4 8 0 31.54315923660779 51.110186370763614 34.6690557813852 0 0 0
69 1 5 0 31.563322720715178 47.54078320082675 30.243287587586934 0 0 0
67 1 4 0 31.19977841301299 46.78923412662226 59.795932369946044 0 0 -1
2007 3 7 0 34.56798987130189 48.63806909557074 32.959902236654315 0 0 0
2006 3 9 0 34.94813656157281 48.070295364979586 33.58921190719328 0 0 0
2003 3 4 0 36.39358758425137 48.172954689232476 33.80758411647445 0 0 0
2012 3 5 0 38.48461232821722 50.153608528304396 34.585850174925156 0 0 0
1996 3 4 0 36.588314926243754 45.78004254067281 32.889291143066686 0 0 0
2005 3 5 0 36.7951221491399 48.88381619959599 32.97997849818115 0 0 0
113 1 7 0 40.47037277705533 46.25262809542212 33.347811149294984 0 0 0
2009 3 3 0 36.63136755836865 48.95537457194788 35.08854855659598 0 0 0
108 1 3 0 40.46770237497361 48.19487644683038 30.667190556160513 0 0 0
104 1 5 0 38.249990571285856 48.18117469062147 31.06222022267289 0 0 0
111 1 5 0 39.77151652320787 48.41671229705437 32.75003923810386 0 0 0
2008 3 8 0 37.25680765360461 48.407413132612135 35.75758994097165 0 0 0
109 1 4 0 40.58895226746351 47.90278214005528 32.169986799890474 0 0 0
110 1 1 0 41.07881087695001 47.5331793436746 30.02032851117753 0 0 0
112 1 9 0 40.2377646886585 46.48450509867723 32.44452938513483 0 0 0
102 1 4 0 38.97222166467843 48.370875702354944 30.259918256309486 0 0 0
2010 3 4 0 37.457966275418876 50.308070371159815 34.980094536000415 0 0 0
119 1 9 0 40.87855871674171 49.81458186356746 34.1051787883049 0 0 0
120 1 7 0 41.24721226415417 50.5468672180434 33.554877029690644 0 0 0
107 1 8 0 40.80964797653482 49.24885018166738 30.486483230472697 0 0 0
105 1 9 0 38.768300769061526 49.691205725044206 59.97864811702752 0 0 -1
106 1 7 0 38.65220009333989 50.3942608708536 30.2894913741399 0 0 0