units			real
dimension		3
processors		* * *
boundary		p p p
atom_style		full
pair_style		lj/cut 10.0
bond_style		harmonic
angle_style 	harmonic
dihedral_style harmonic
read_data		PVA_NP_H2O_EQUILIBRATED_WITH_CHARGE.data
Reading data file ...
  orthogonal box = (62.65904 73.967034 70.266038) to (100.42797 111.73596 108.03497)
  1 by 1 by 1 MPI processor grid
WARNING: Pair style in data file differs from currently defined pair style (src/read_data.cpp:667)
  reading atoms ...
  6084 atoms
  reading velocities ...
  6084 velocities
  scanning bonds ...
  4 = max bonds/atom
  scanning angles ...
  6 = max angles/atom
  scanning dihedrals ...
  12 = max dihedrals/atom
  reading bonds ...
  6080 bonds
  reading angles ...
  11116 angles
  reading dihedrals ...
  17688 dihedrals
Finding 1-2 1-3 1-4 neighbors ...
  special bond factors lj:    0        0        0       
  special bond factors coul:  0        0        0       
     4 = max # of 1-2 neighbors
     7 = max # of 1-3 neighbors
    16 = max # of 1-4 neighbors
    20 = max # of special neighbors
  special bonds CPU = 0.006 seconds
  read_data CPU = 0.247 seconds


timestep 1

group  water type 11 6
60 atoms in group water
group polymer_OH type 12 9
1600 atoms in group polymer_OH
group polymer_C type 3 4
1600 atoms in group polymer_C
group particles union water polymer_OH polymer_C
3260 atoms in group particles



#output
thermo			100
thermo_style	custom temp step
dump			1 particles custom 100 DATA_unlink_win.lammpstrj type id xu yu zu # unwrapped coordinates


# nvt for 1 ns
fix			1 all nvt temp 300 300 100
run			1000000
Generated 91 of 91 mixed pair_coeff terms from geometric mixing rule
Last active /omp style is dihedral_style harmonic/omp
Neighbor list info ...
  update: every = 1 steps, delay = 10 steps, check = yes
  max neighbors/atom: 2000, page size: 100000
  master list distance cutoff = 12
  ghost atom cutoff = 12
  binsize = 6, bins = 7 7 7
  1 neighbor lists, perpetual/occasional/extra = 1 0 0
  (1) pair lj/cut/omp, perpetual
      attributes: half, newton on, omp
      pair build: half/bin/newton/omp
      stencil: half/bin/3d
      bin: standard
Per MPI rank memory allocation (min/avg/max) = 47.44 | 47.44 | 47.44 Mbytes
     Temp         Step    
 300.18645              0 
 313.08403            100 
 305.70587            200 
 299.96365            300 
 296.00453            400 
 296.82959            500 
 301.08729            600 
 298.824              700 
 303.26848            800 
 305.05124            900 
 300.85612           1000 
 299.28756           1100 
 299.92922           1200 
 301.90086           1300 
 300.78286           1400 
 304.402             1500 
 305.38238           1600 
 300.04993           1700 
 302.94009           1800 
 299.92477           1900 
 296.98809           2000 
 303.42517           2100 
 303.93737           2200 
 306.06008           2300 
 302.15341           2400 
 299.84482           2500 
 298.07093           2600 
 301.0115            2700 
 303.97929           2800 
 297.40287           2900 
 295.41947           3000 
 297.03913           3100 
 302.49492           3200 
 302.26445           3300 
 300.26469           3400 
 302.71143           3500 
 295.36476           3600 
 293.43446           3700 
 306.76946           3800 
 298.35489           3900 
 299.44086           4000 
 295.91626           4100 
 298.57899           4200 
 298.91674           4300 
 295.60016           4400 
 298.57608           4500 
 299.0006            4600 
 303.56126           4700 
 302.3365            4800 
 301.18314           4900 
 300.6068            5000 
 295.23018           5100 
 304.44476           5200 
 302.98157           5300 
 305.88049           5400 
 304.1216            5500 
 293.96787           5600 
 299.84075           5700 
 297.66374           5800 
 303.45256           5900 
 302.31445           6000 
 300.33153           6100 
 300.74943           6200 
 300.41242           6300 
 299.61449           6400 
 300.46684           6500 
 303.19414           6600 
 296.54798           6700 
 298.75808           6800 
 297.95051           6900 
 298.06328           7000 
 305.27067           7100 
 303.58487           7200 
 301.29538           7300 
 300.88323           7400 
 299.21871           7500 
 300.67539           7600 
 295.46518           7700 
 298.4429            7800 
 301.66149           7900 
 305.33711           8000 
 299.29211           8100 
 301.98716           8200 
 302.01678           8300 
 302.06715           8400 
 295.18739           8500 
 299.22578           8600 
 298.18941           8700 
 298.91969           8800 
 298.99898           8900 
 299.43974           9000 
 300.26747           9100 
 301.26665           9200 
 296.52805           9300 
 301.17049           9400 
 297.14304           9500 
 296.90781           9600 
 305.77267           9700 
 301.4278            9800 
 301.11265           9900 
 301.74026          10000 
 302.06199          10100 
 300.61282          10200 
 298.36678          10300 
 301.29304          10400 
 301.37078          10500 
 300.36123          10600 
 305.55515          10700 
 303.34553          10800 
 302.56422          10900 
 296.34482          11000 
 298.67483          11100 
 302.70798          11200 
 301.82587          11300 
 299.60591          11400 
 294.25015          11500 
 296.93785          11600 
 301.71995          11700 
 298.86297          11800 
 303.19247          11900 
 305.60586          12000 
 297.76273          12100 
 297.70843          12200 
 295.36169          12300 
 303.19142          12400 
 303.12666          12500 
 294.44564          12600 
 302.94227          12700 
 296.69738          12800 
 299.28203          12900 
 300.13009          13000 
 300.6649           13100 
 307.90201          13200 
 303.79974          13300 
 299.50111          13400 
 299.14379          13500 
 296.40838          13600 
 304.59595          13700 
 298.04897          13800 
 296.40078          13900 
 295.47457          14000 
 302.80303          14100 
 301.2328           14200 
 301.07982          14300 
 298.64827          14400 
 297.90659          14500 
 302.75045          14600 
 300.21382          14700 
 301.64086          14800 
 299.79755          14900 
 295.24059          15000 
 298.70424          15100 
 297.45939          15200 
 301.80225          15300 
 299.66944          15400 
 302.79715          15500 
 301.71528          15600 
 298.89941          15700 
 300.34422          15800 
 299.04329          15900 
 294.97782          16000 
 295.73582          16100 
 296.86336          16200 
 301.84765          16300 
 297.81617          16400 
 296.11727          16500 
 296.91068          16600 
 297.91414          16700 
 305.08597          16800 
 303.53524          16900 
 303.11992          17000 
 296.2783           17100 
 293.89352          17200 
 299.7141           17300 
 304.82872          17400 
 303.21569          17500 
 301.3915           17600 
 297.61393          17700 
 295.29217          17800 
 301.16926          17900 
 299.86547          18000 
 298.75699          18100 
 299.54253          18200 
 297.36922          18300 
 300.12796          18400 
 301.5354           18500 
 304.81893          18600 
 297.88619          18700 
 297.25474          18800 
 302.42747          18900 
 301.40429          19000 
 299.95189          19100 
 301.55439          19200 
 302.42062          19300 
 298.75842          19400 
 294.76758          19500 
 302.94976          19600 
 303.0767           19700 
 302.25752          19800 
 293.98227          19900 
 299.92685          20000 
 301.69093          20100 
 303.4478           20200 
 298.75342          20300 
 298.03558          20400 
 303.19537          20500 
 302.44827          20600 
 305.4007           20700 
 302.50667          20800 
 296.69233          20900 
 300.70446          21000 
 294.5439           21100 
 301.50766          21200 
 304.63484          21300 
 303.2786           21400 
 301.9708           21500 
 300.04417          21600 
 298.5844           21700 
 301.12821          21800 
 304.00529          21900 
 300.16881          22000 
 308.83484          22100 
 302.2669           22200 
 300.2823           22300 
 299.89739          22400 
 298.29122          22500 
 302.71747          22600 
 304.77015          22700 
 300.61534          22800 
 300.58102          22900 
 301.70439          23000 
 294.63633          23100 
 302.22332          23200 
 303.83887          23300 
 300.48861          23400 
 292.42871          23500 
 296.9715           23600 
 297.6335           23700 
 302.33054          23800 
 298.24688          23900 
 295.46924          24000 
 300.45626          24100 
 299.0683           24200 
 299.06632          24300 
 297.26034          24400 
 298.53045          24500 
 298.13099          24600 
 303.09522          24700 
 302.54149          24800 
 304.00815          24900 
 299.51307          25000 
 294.8744           25100 
 298.09699          25200 
 297.76734          25300 
 303.12341          25400 
 301.99214          25500 
 304.07243          25600 
 301.72544          25700 
 295.40349          25800 
 298.89652          25900 
 302.11414          26000 
 304.21771          26100 
 302.99207          26200 
 295.43068          26300 
 293.67543          26400 
 301.37102          26500 
 302.2693           26600 
 301.14943          26700 
 297.90859          26800 
 299.81243          26900 
 301.55906          27000 
 294.37554          27100 
 302.60516          27200 
 299.98414          27300 
 299.54654          27400 
 296.36484          27500 
 300.54456          27600 
 303.69487          27700 
 301.20095          27800 
 301.78004          27900 
 302.03908          28000 
 299.31674          28100 
 298.221            28200 
 303.28184          28300 
 308.19166          28400 
 302.19288          28500 
 303.52844          28600 
 300.39155          28700 
 297.00099          28800 
 302.25654          28900 
 302.46279          29000 
 303.24335          29100 
 302.94623          29200 
 300.92317          29300 
 296.7932           29400 
 302.37842          29500 
 298.2279           29600 
 302.57737          29700 
 304.59298          29800 
 296.04329          29900 
 297.76503          30000 
 303.81616          30100 
 301.78333          30200 
 302.40824          30300 
 305.07209          30400 
 300.07329          30500 
 299.09025          30600 
 303.04425          30700 
 301.36855          30800 
 301.06654          30900 
 300.2378           31000 
 300.44884          31100 
 301.19659          31200 
 299.17807          31300 
 297.94271          31400 
 302.08664          31500 
 302.98111          31600 
 300.79221          31700 
 303.99464          31800 
 292.82595          31900 
 297.80636          32000 
 297.21664          32100 
 304.02893          32200 
 305.65673          32300 
 302.14727          32400 
 299.89144          32500 
 298.10372          32600 
 301.06217          32700 
 299.62038          32800 
 296.87103          32900 
 302.82351          33000 
 301.83436          33100 
 294.43129          33200 
 295.26272          33300 
 295.37771          33400 
 299.54768          33500 
 300.73216          33600 
 298.67709          33700 
 296.92244          33800 
 294.7897           33900 
 297.80088          34000 
 300.7459           34100 
 302.1282           34200 
 302.22922          34300 
 299.8157           34400 
 299.96159          34500 
 302.73734          34600 
 296.64832          34700 
 301.62112          34800 
 296.88858          34900 
 298.44003          35000 
 298.48881          35100 
 302.11637          35200 
 301.03958          35300 
 302.83912          35400 
 296.14211          35500 
 292.25438          35600 
 302.37702          35700 
 300.32477          35800 
 297.64797          35900 
 301.34413          36000 
 302.07056          36100 
 295.31503          36200 
 294.60902          36300 
 296.29173          36400 
 302.96917          36500 
 303.0944           36600 
 298.60602          36700 
 297.8253           36800 
 294.50508          36900 
 298.8136           37000 
 304.66883          37100 
 302.1086           37200 
 294.89964          37300 
 302.80758          37400 
 296.61659          37500 
 303.57705          37600 
 299.53436          37700 
 302.51311          37800 
 297.10041          37900 
 297.11943          38000 
 297.8225           38100 
 301.14797          38200 
 305.52143          38300 
 306.74093          38400 
 302.07928          38500 
 299.72001          38600 
 295.41779          38700 
 303.18198          38800 
 299.7282           38900 
 302.53599          39000 
 292.50236          39100 
 298.38403          39200 
 299.55539          39300 
 302.93743          39400 
 302.78502          39500 
 301.27664          39600 
 297.91468          39700 
 298.62357          39800 
 299.41334          39900 
 304.09831          40000 
 298.38362          40100 
 296.33035          40200 
 294.44837          40300 
 301.3977           40400 
 302.33018          40500 
 302.85661          40600 
 301.85748          40700 
 298.18095          40800 
 300.2884           40900 
 298.28069          41000 
 301.56709          41100 
 305.72798          41200 
 303.71236          41300 
 304.39876          41400 
 301.25632          41500 
 294.50161          41600 
 298.09784          41700 
 302.26402          41800 
 302.9577           41900 
 299.64916          42000 
 298.59091          42100 
 300.65669          42200 
 299.41969          42300 
 301.90969          42400 
 296.39807          42500 
 295.44806          42600 
 296.61945          42700 
 301.38999          42800 
 301.5541           42900 
 298.57663          43000 
 294.88566          43100 
 296.05739          43200 
 301.62294          43300 
 301.89857          43400 
 301.42919          43500 
 300.33507          43600 
 294.83806          43700 
 296.56304          43800 
 293.5688           43900 
 300.44521          44000 
 298.29874          44100 
 299.85829          44200 
 295.69427          44300 
 294.59902          44400 
 302.34196          44500 
 301.43005          44600 
 301.29375          44700 
 300.4498           44800 
 296.29537          44900 
 300.21093          45000 
 303.31718          45100 
 297.9709           45200 
 301.57616          45300 
 297.19263          45400 
 298.7488           45500 
 297.99959          45600 
 298.02739          45700 
 301.10067          45800 
 297.6651           45900 
 300.47862          46000 
 298.81812          46100 
 295.17747          46200 
 297.40652          46300 
 301.86941          46400 
 301.67168          46500 
 299.22357          46600 
 296.31149          46700 
 302.96671          46800 
 307.99566          46900 
 301.79351          47000 
 298.5691           47100 
 297.29406          47200 
 297.52621          47300 
 303.16555          47400 
 303.8095           47500 
 301.71135          47600 
 298.63836          47700 
 298.8143           47800 
 298.48587          47900 
 301.76942          48000 
 304.66797          48100 
 304.60683          48200 
 301.22652          48300 
 303.74931          48400 
 296.83982          48500 
 297.68222          48600 
 297.32052          48700 
 299.34072          48800 
 301.91343          48900 
 300.51186          49000 
 301.1734           49100 
 297.50586          49200 
 292.49584          49300 
 299.09865          49400 
 301.11809          49500 
 299.12533          49600 
 303.54867          49700 
 303.24949          49800 
 302.98594          49900 
 297.23104          50000 
 296.44035          50100 
 297.6025           50200 
 304.07903          50300 
 302.42748          50400 
 301.40253          50500 
 298.44861          50600 
 299.54489          50700 
 297.04933          50800 
 300.88183          50900 
 297.75555          51000 
 302.28699          51100 
 297.19102          51200 
 294.99101          51300 
 300.55725          51400 
 304.39041          51500 
 301.87267          51600 
 298.60125          51700 
 300.35244          51800 
 300.87404          51900 
 300.50867          52000 
 296.08075          52100 
 296.69333          52200 
 300.71973          52300 
 298.62847          52400 
 302.54194          52500 
 299.47631          52600 
 302.70267          52700 
 295.80467          52800 
 299.17564          52900 
 303.90286          53000 
 302.78488          53100 
 301.17285          53200 
 293.87026          53300 
 296.70723          53400 
 299.54719          53500 
 301.70792          53600 
 301.79405          53700 
 295.46017          53800 
 292.70025          53900 
 299.34665          54000 
 306.01195          54100 
 303.61664          54200 
 299.04428          54300 
 296.20142          54400 
 296.4002           54500 
 295.18906          54600 
 302.45824          54700 
 301.85643          54800 
 298.62988          54900 
 298.57826          55000 
 300.61849          55100 
 298.77652          55200 
 294.31611          55300 
 300.73937          55400 
 300.31453          55500 
 304.84067          55600 
 303.19051          55700 
 299.2566           55800 
 295.17794          55900 
 298.24402          56000 
 303.61745          56100 
 305.0404           56200 
 302.89428          56300 
 298.49312          56400 
 296.57613          56500 
 296.47352          56600 
 303.3102           56700 
 296.97373          56800 
 299.44656          56900 
 303.95276          57000 
 294.14251          57100 
 291.55697          57200 
 301.09545          57300 
 295.61265          57400 
 300.40232          57500 
 298.73495          57600 
 300.44585          57700 
 301.73908          57800 
 297.57426          57900 
 297.20395          58000 
 303.43863          58100 
 302.80962          58200 
 308.54562          58300 
 301.50936          58400 
 300.67405          58500 
 301.68885          58600 
 300.46794          58700 
 299.09257          58800 
 304.26942          58900 
 304.68799          59000 
 301.87143          59100 
 301.64367          59200 
 299.53199          59300 
 294.63601          59400 
 297.81848          59500 
 303.26315          59600 
 306.19596          59700 
 299.79417          59800 
 300.42427          59900 
 298.66412          60000 
 302.26264          60100 
 301.24727          60200 
 305.81671          60300 
 304.03542          60400 
 297.04596          60500 
 299.21187          60600 
 302.76683          60700 
 298.82423          60800 
 298.6563           60900 
 303.16309          61000 
 302.94981          61100 
 301.58015          61200 
 299.1321           61300 
 296.10049          61400 
 300.24637          61500 
 306.97531          61600 
 301.31003          61700 
 297.04706          61800 
 296.29659          61900 
 302.05111          62000 
 303.79098          62100 
 303.03293          62200 
 298.4418           62300 
 293.84538          62400 
 300.81161          62500 
 304.0664           62600 
 302.43637          62700 
 295.27378          62800 
 294.0741           62900 
 298.9986           63000 
 302.02896          63100 
 302.34935          63200 
 301.38135          63300 
 302.09903          63400 
 294.99745          63500 
 297.11046          63600 
 298.07616          63700 
 302.49729          63800 
 295.91746          63900 
 302.14368          64000 
 299.06099          64100 
 297.12322          64200 
 293.31544          64300 
 300.80918          64400 
 305.61747          64500 
 300.91517          64600 
 303.80186          64700 
 292.78717          64800 
 294.23737          64900 
 298.56571          65000 
 299.61154          65100 
 298.53186          65200 
 302.10089          65300 
 302.25113          65400 
 297.76279          65500 
 295.74189          65600 
 302.45711          65700 
 296.12294          65800 
 305.09921          65900 
 299.84886          66000 
 298.95823          66100 
 300.89024          66200 
 296.62743          66300 
 299.03469          66400 
 303.35382          66500 
 303.03016          66600 
 300.23269          66700 
 298.04813          66800 
 301.59834          66900 
 301.20626          67000 
 303.0472           67100 
 305.96336          67200 
 303.78419          67300 
 301.35217          67400 
 293.96508          67500 
 299.14505          67600 
 304.87168          67700 
 301.30601          67800 
 299.73392          67900 
 299.99039          68000 
 297.43072          68100 
 306.78758          68200 
 298.13506          68300 
 295.50279          68400 
 297.85305          68500 
 303.41025          68600 
 299.73835          68700 
 298.63108          68800 
 295.61324          68900 
 297.36391          69000 
 294.83121          69100 
 301.11904          69200 
 298.64528          69300 
 299.9095           69400 
 298.7831           69500 
 297.14424          69600 
 299.93306          69700 
 299.51131          69800 
 303.38885          69900 
 301.72688          70000 
 299.44011          70100 
 297.35843          70200 
 296.96428          70300 
 301.09213          70400 
 304.15485          70500 
 302.31028          70600 
 300.73515          70700 
 296.81767          70800 
 298.56393          70900 
 298.34274          71000 
 306.36061          71100 
 301.75122          71200 
 299.35747          71300 
 301.33558          71400 
 298.11155          71500 
 301.61673          71600 
 304.06004          71700 
 302.93999          71800 
 303.69585          71900 
 301.91044          72000 
 293.51604          72100 
 300.48513          72200 
 302.49521          72300 
 306.4222           72400 
 295.03336          72500 
 298.08838          72600 
 300.86663          72700 
 299.03117          72800 
 301.76328          72900 
 302.80446          73000 
 303.60473          73100 
 300.25913          73200 
 297.30726          73300 
 295.35974          73400 
 297.59793          73500 
 302.34018          73600 
 306.49117          73700 
 299.54532          73800 
 302.78964          73900 
 298.53987          74000 
 298.58663          74100 
 294.90449          74200 
 302.29555          74300 
 303.80985          74400 
 300.79404          74500 
 300.13628          74600 
 292.7265           74700 
 298.57378          74800 
 304.15436          74900 
 300.99533          75000 
 302.11353          75100 
 299.72526          75200 
 295.84446          75300 
 297.46705          75400 
 301.67642          75500 
 303.9567           75600 
 296.04298          75700 
 298.94763          75800 
 295.32972          75900 
 301.41206          76000 
 305.67562          76100 
 297.15753          76200 
 299.13015          76300 
 300.12997          76400 
 294.46394          76500 
 296.18694          76600 
 299.77474          76700 
 299.4713           76800 
 298.29151          76900 
 302.69642          77000 
 298.02715          77100 
 301.52851          77200 
 300.91847          77300 
 301.29771          77400 
 299.97118          77500 
 301.82974          77600 
 295.61879          77700 
 302.02021          77800 
 304.31288          77900 
 300.66637          78000 
 300.65799          78100 
 300.39312          78200 
 300.33467          78300 
 298.67367          78400 
 302.51686          78500 
 301.27513          78600 
 296.15771          78700 
 299.30661          78800 
 297.88671          78900 
 305.77732          79000 
 303.87434          79100 
 302.44912          79200 
 298.41461          79300 
 299.46686          79400 
 298.93153          79500 
 304.06128          79600 
 302.03307          79700 
 299.85361          79800 
 300.25512          79900 
 297.00925          80000 
 302.68863          80100 
 301.80325          80200 
 301.4892           80300 
 299.36298          80400 
 300.30867          80500 
 302.02564          80600 
 305.48294          80700 
 298.28662          80800 
 299.1143           80900 
 300.05668          81000 
 298.77385          81100 
 301.61687          81200 
 301.38637          81300 
 301.85211          81400 
 294.02821          81500 
 295.84464          81600 
 300.51363          81700 
 303.81153          81800 
 299.44451          81900 
 296.40835          82000 
 295.58914          82100 
 303.94178          82200 
 306.68276          82300 
 302.32528          82400 
 298.06401          82500 
 296.75781          82600 
 297.07893          82700 
 298.2032           82800 
 301.5659           82900 
 296.90347          83000 
 299.20128          83100 
 297.71483          83200 
 298.04508          83300 
 299.17439          83400 
 303.75763          83500 
 303.89867          83600 
 295.64194          83700 
 296.43497          83800 
 297.29377          83900 
 301.92764          84000 
 301.40313          84100 
 298.29568          84200 
 300.00461          84300 
 299.03485          84400 
 299.14858          84500 
 297.00088          84600 
 295.89504          84700 
 302.60001          84800 
 300.88242          84900 
 299.5313           85000 
 297.02004          85100 
 296.86914          85200 
 300.16544          85300 
 301.63621          85400 
 304.83409          85500 
 298.70619          85600 
 293.74224          85700 
 295.73809          85800 
 300.94929          85900 
 301.71865          86000 
 301.83782          86100 
 298.0201           86200 
 305.67436          86300 
 301.73857          86400 
 297.77377          86500 
 298.55309          86600 
 303.11376          86700 
 299.43768          86800 
 302.23816          86900 
 299.17802          87000 
 302.59784          87100 
 298.91808          87200 
 297.82064          87300 
 303.57517          87400 
 304.00933          87500 
 301.69393          87600 
 298.89796          87700 
 297.98684          87800 
 299.89489          87900 
 302.01455          88000 
 301.82534          88100 
 302.32175          88200 
 298.90898          88300 
 295.87864          88400 
 300.77963          88500 
 298.82314          88600 
 302.68873          88700 
 300.47441          88800 
 301.94439          88900 
 304.11188          89000 
 297.2838           89100 
 296.19354          89200 
 297.01696          89300 
 299.35595          89400 
 297.68013          89500 
 297.204            89600 
 302.42153          89700 
 303.60977          89800 
 307.26499          89900 
 300.68151          90000 
 301.9863           90100 
 296.86001          90200 
 299.98948          90300 
 301.56845          90400 
 303.35299          90500 
 304.42345          90600 
 296.85384          90700 
 299.97037          90800 
 300.73538          90900 
 304.67662          91000 
 295.63394          91100 
 297.15955          91200 
 296.47129          91300 
 299.06987          91400 
 301.14098          91500 
 297.77756          91600 
 298.47626          91700 
 293.71034          91800 
 293.73533          91900 
 301.31185          92000 
 301.27692          92100 
 300.97629          92200 
 304.11505          92300 
 296.92474          92400 
 297.58538          92500 
 296.89939          92600 
 296.5057           92700 
 304.45465          92800 
 304.79233          92900 
 298.14933          93000 
 296.43972          93100 
 300.45139          93200 
 303.80638          93300 
 305.23283          93400 
 301.78671          93500 
 299.3071           93600 
 297.38036          93700 
 298.8867           93800 
 301.94027          93900 
 300.75218          94000 
 306.88454          94100 
 303.21674          94200 
 305.33583          94300 
 303.01646          94400 
 295.65638          94500 
 300.40034          94600 
 300.64249          94700 
 300.18812          94800 
 300.7019           94900 
 300.86877          95000 
 298.0879           95100 
 301.10293          95200 
 298.34723          95300 
 302.87677          95400 
 303.72562          95500 
 303.7229           95600 
 298.28215          95700 
 296.90407          95800 
 293.51881          95900 
 303.49787          96000 
 298.59594          96100 
 301.24152          96200 
 301.21139          96300 
 294.21519          96400 
 298.75797          96500 
 300.91069          96600 
 299.3897           96700 
 304.79873          96800 
 306.06224          96900 
 294.06818          97000 
 295.92299          97100 
 299.97753          97200 
 293.76637          97300 
 302.1375           97400 
 302.13383          97500 
 296.06114          97600 
 295.17074          97700 
 293.4585           97800 
 297.04816          97900 
 303.19745          98000 
 301.06718          98100 
 299.89539          98200 
 298.58136          98300 
 297.06724          98400 
 301.2349           98500 
 299.35257          98600 
 300.65863          98700 
 298.43533          98800 
 296.85235          98900 
 289.39539          99000 
 302.58422          99100 
 302.03959          99200 
 305.20509          99300 
 296.98094          99400 
 294.98092          99500 
 300.1999           99600 
 300.57173          99700 
 296.33276          99800 
 300.88698          99900 
 299.27794         100000 
 291.46567         100100 
 291.8142          100200 
 302.75093         100300 
 296.09987         100400 
 301.27948         100500 
 300.84003         100600 
 297.68564         100700 
 294.24132         100800 
 298.45311         100900 
 302.57275         101000 
 305.13782         101100 
 297.94913         101200 
 302.27054         101300 
 294.96067         101400 
 299.15976         101500 
 298.81313         101600 
 301.12888         101700 
 300.05617         101800 
 303.43913         101900 
 302.04291         102000 
 302.22512         102100 
 298.90625         102200 
 299.64038         102300 
 301.1019          102400 
 304.22208         102500 
 300.71508         102600 
 305.79182         102700 
 297.87152         102800 
 300.4137          102900 
 302.96086         103000 
 301.4156          103100 
 301.0223          103200 
 303.68228         103300 
 302.56366         103400 
 301.72128         103500 
 299.05788         103600 
 300.92622         103700 
 302.02683         103800 
 301.89721         103900 
 300.96661         104000 
 298.31197         104100 
 298.81618         104200 
 301.77704         104300 
 302.63294         104400 
 299.61332         104500 
 296.0666          104600 
 302.60947         104700 
 298.54267         104800 
 295.75507         104900 
 302.9982          105000 
 304.04989         105100 
 303.45088         105200 
 299.163           105300 
 294.7208          105400 
 301.92057         105500 
 299.93123         105600 
 299.32774         105700 
 296.43533         105800 
 291.18573         105900 
 303.71436         106000 
 300.57983         106100 
 298.06852         106200 
 296.52138         106300 
 301.93551         106400 
 304.4895          106500 
 304.16017         106600 
 299.87238         106700 
 297.79833         106800 
 293.40229         106900 
 299.80103         107000 
 299.56515         107100 
 296.58139         107200 
 298.39134         107300 
 296.2617          107400 
 300.7555          107500 
 295.35671         107600 
 302.77            107700 
 294.73237         107800 
 294.72725         107900 
 300.43225         108000 
 299.82989         108100 
 303.68092         108200 
 300.50339         108300 
 296.60824         108400 
 297.99779         108500 
 300.52833         108600 
 302.24463         108700 
 300.52014         108800 
 298.41368         108900 
 299.92053         109000 
 300.02811         109100 
 302.08359         109200 
 298.25094         109300 
 300.41617         109400 
 304.56782         109500 
 299.01329         109600 
 301.10228         109700 
 297.65817         109800 
 300.91527         109900 
 304.22007         110000 
 304.91309         110100 
 301.29178         110200 
 300.3913          110300 
 300.96313         110400 
 302.07554         110500 
 306.00688         110600 
 307.10426         110700 
 298.25433         110800 
 297.80513         110900 
 303.35774         111000 
 302.97019         111100 
 301.48381         111200 
 306.58436         111300 
 296.31101         111400 
 302.36509         111500 
 296.09175         111600 
 300.34513         111700 
 301.87901         111800 
 297.61182         111900 
 296.59906         112000 
 295.721           112100 
 300.53595         112200 
 305.02984         112300 
 300.95227         112400 
 300.33335         112500 
 298.58433         112600 
 301.37105         112700 
 302.12965         112800 
 299.16687         112900 
 298.35428         113000 
 300.66303         113100 
 299.22            113200 
 299.81677         113300 
 302.66336         113400 
 301.94398         113500 
 298.53816         113600 
 300.05147         113700 
 299.09165         113800 
 299.19197         113900 
 304.07008         114000 
 302.39216         114100 
 298.63334         114200 
 299.15856         114300 
 298.79041         114400 
 308.01883         114500 
 304.09378         114600 
 300.23223         114700 
 296.41702         114800 
 300.93092         114900 
 301.63481         115000 
 304.88105         115100 
 304.07001         115200 
 298.67754         115300 
 295.58033         115400 
 300.59586         115500 
 299.60698         115600 
 300.98541         115700 
 298.88153         115800 
 293.4623          115900 
 300.1768          116000 
 297.43862         116100 
 304.86243         116200 
 302.92469         116300 
 300.42888         116400 
 298.73162         116500 
 290.28839         116600 
 295.91863         116700 
 302.35889         116800 
 302.73802         116900 
 303.29099         117000 
 297.0763          117100 
 295.77393         117200 
 299.90741         117300 
 302.74364         117400 
 298.93903         117500 
 299.31359         117600 
 300.42166         117700 
 297.80348         117800 
 297.17945         117900 
 299.50527         118000 
 300.35036         118100 
 299.18178         118200 
 298.16023         118300 
 298.39734         118400 
 304.67345         118500 
 303.8564          118600 
 300.52621         118700 
 299.79404         118800 
 299.19939         118900 
 299.08619         119000 
 301.82411         119100 
 305.24548         119200 
 304.90171         119300 
 300.0256          119400 
 298.74507         119500 
 303.05089         119600 
 300.79788         119700 
 302.31356         119800 
 305.36816         119900 
 302.78644         120000 
 298.36918         120100 
 298.15223         120200 
 303.04502         120300 
 301.93442         120400 
 300.58691         120500 
 297.82309         120600 
 300.94238         120700 
 302.98655         120800 
 296.89039         120900 
 297.63689         121000 
 300.65013         121100 
 306.55945         121200 
 302.34961         121300 
 296.65852         121400 
 298.66273         121500 
 299.40798         121600 
 305.70843         121700 
 304.37038         121800 
 304.23571         121900 
 299.89554         122000 
 301.4295          122100 
 300.41603         122200 
 299.45835         122300 
 298.06627         122400 
 300.67003         122500 
 300.47186         122600 
 306.3791          122700 
 298.59691         122800 
 299.79947         122900 
 295.18947         123000 
 301.9568          123100 
 298.95668         123200 
 298.31628         123300 
 298.91524         123400 
 301.49706         123500 
 296.78476         123600 
 300.36587         123700 
 301.96641         123800 
 298.94953         123900 
 299.36376         124000 
 300.37874         124100 
 293.20434         124200 
 305.14583         124300 
 306.6065          124400 
 300.61691         124500 
 297.49683         124600 
 300.78295         124700 
 305.64809         124800 
 306.09113         124900 
 299.8531          125000 
 297.20721         125100 
 298.05182         125200 
 299.99188         125300 
 302.62098         125400 
 304.81706         125500 
 300.26773         125600 
 300.65725         125700 
 299.29879         125800 
 299.29912         125900 
 304.56757         126000 
 306.49037         126100 
 301.33136         126200 
 296.84413         126300 
 297.8553          126400 
 298.83832         126500 
 306.5656          126600 
 303.60337         126700 
 302.96339         126800 
 300.8929          126900 
 294.12829         127000 
 296.28687         127100 
 302.13989         127200 
 303.87785         127300 
 309.28381         127400 
 297.89223         127500 
 297.6652          127600 
 301.97482         127700 
 297.76439         127800 
 301.36198         127900 
 305.92088         128000 
 307.04258         128100 
 300.20711         128200 
 299.59361         128300 
 297.66351         128400 
 305.21215         128500 
 304.17573         128600 
 300.54925         128700 
 297.10252         128800 
 302.87055         128900 
 302.03663         129000 
 299.29073         129100 
 292.62639         129200 
 300.34092         129300 
 301.0391          129400 
 300.00963         129500 
 300.85081         129600 
 300.93313         129700 
 297.66968         129800 
 297.99546         129900 
 300.3055          130000 
 305.15598         130100 
 301.76538         130200 
 294.72253         130300 
 293.58985         130400 
 302.33105         130500 
 297.76403         130600 
 304.24052         130700 
 297.8349          130800 
 298.95726         130900 
 297.78187         131000 
 297.87164         131100 
 301.02799         131200 
 298.76307         131300 
 298.79432         131400 
 300.50683         131500 
 300.33058         131600 
 298.12128         131700 
 298.44562         131800 
 302.3099          131900 
 300.87221         132000 
 296.82735         132100 
 300.96211         132200 
 295.14644         132300 
 299.69264         132400 
 299.25564         132500 
 303.30154         132600 
 300.17643         132700 
 299.37031         132800 
 298.74008         132900 
 300.91253         133000 
 301.69347         133100 
 304.19693         133200 
 301.53927         133300 
 301.99016         133400 
 295.40635         133500 
 299.91446         133600 
 302.12909         133700 
 299.55636         133800 
 300.50833         133900 
 296.33151         134000 
 297.95041         134100 
 298.64994         134200 
 301.13894         134300 
 296.90034         134400 
 296.78418         134500 
 297.89168         134600 
 295.13699         134700 
 301.4903          134800 
 301.50103         134900 
 304.41397         135000 
 295.23607         135100 
 292.49593         135200 
 297.73553         135300 
 296.86005         135400 
 300.3696          135500 
 297.90566         135600 
 301.12612         135700 
 293.10599         135800 
 298.33474         135900 
 299.17164         136000 
 302.83212         136100 
 302.59316         136200 
 300.10648         136300 
 298.52211         136400 
 293.79108         136500 
 303.07252         136600 
 300.51103         136700 
 301.51621         136800 
 300.96125         136900 
 300.40476         137000 
 295.64726         137100 
 297.23966         137200 
 302.53668         137300 
 299.54259         137400 
 299.00528         137500 
 297.49249         137600 
 295.46845         137700 
 290.09357         137800 
 302.9017          137900 
 302.89433         138000 
 302.16354         138100 
 301.0624          138200 
 296.90832         138300 
 302.84556         138400 
 302.24896         138500 
 302.85711         138600 
 297.08158         138700 
 301.08587         138800 
 299.40942         138900 
 300.77057         139000 
 297.20311         139100 
 301.393           139200 
 305.27199         139300 
 302.49891         139400 
 299.96887         139500 
 298.02764         139600 
 294.49676         139700 
 296.36088         139800 
 304.19876         139900 
 306.32805         140000 
 300.5487          140100 
 299.13657         140200 
 295.80303         140300 
 300.99685         140400 
 298.90872         140500 
 303.38086         140600 
 301.87063         140700 
 295.78066         140800 
 305.08733         140900 
 294.49746         141000 
 295.44451         141100 
 296.36508         141200 
 295.77682         141300 
 298.71987         141400 
 301.96214         141500 
 297.91694         141600 
 296.75048         141700 
 308.33422         141800 
 302.18271         141900 
 300.32461         142000 
 298.45807         142100 
 298.768           142200 
 300.38496         142300 
 303.11749         142400 
 298.83181         142500 
 301.59018         142600 
 299.91112         142700 
 298.97905         142800 
 304.1798          142900 
 302.54281         143000 
 298.42411         143100 
 296.44043         143200 
 299.57392         143300 
 299.3216          143400 
 307.35977         143500 
 299.49584         143600 
 298.92171         143700 
 296.23381         143800 
 298.60573         143900 
 300.88689         144000 
 296.64254         144100 
 296.05259         144200 
 294.41107         144300 
 296.8428          144400 
 299.04231         144500 
 296.88074         144600 
 300.75657         144700 
 303.68042         144800 
 300.82137         144900 
 297.03508         145000 
 300.77366         145100 
 298.37419         145200 
 300.40955         145300 
 296.31777         145400 
 293.66204         145500 
 299.19919         145600 
 303.07788         145700 
 299.78637         145800 
 301.35591         145900 
 297.428           146000 
 296.21932         146100 
 300.71886         146200 
 300.26017         146300 
 301.9746          146400 
 297.62143         146500 
 303.62278         146600 
 306.09852         146700 
 302.06692         146800 
 299.36286         146900 
 295.05044         147000 
 301.02224         147100 
 302.01298         147200 
 304.18302         147300 
 297.32311         147400 
 297.86059         147500 
 300.23663         147600 
 304.54418         147700 
 303.92798         147800 
 302.68751         147900 
 296.38954         148000 
 298.559           148100 
 304.67749         148200 
 301.9218          148300 
 296.03404         148400 
 299.35627         148500 
 300.17806         148600 
 305.00847         148700 
 302.51355         148800 
 300.14071         148900 
 297.15874         149000 
 300.11773         149100 
 301.0816          149200 
 298.37325         149300 
 296.03174         149400 
 296.70188         149500 
 297.74509         149600 
 296.91201         149700 
 306.20481         149800 
 299.82123         149900 
 295.92811         150000 
 294.97821         150100 
 295.33252         150200 
 302.42203         150300 
 304.48155         150400 
 298.69323         150500 
 297.47319         150600 
 298.90582         150700 
 303.17585         150800 
 304.91121         150900 
 303.213           151000 
 300.17265         151100 
 298.10445         151200 
 306.77954         151300 
 304.06964         151400 
 298.31843         151500 
 304.54047         151600 
 299.54544         151700 
 299.69626         151800 
 299.60377         151900 
 308.68654         152000 
 305.58493         152100 
 303.65305         152200 
 301.25791         152300 
 299.89554         152400 
 296.97315         152500 
 299.78981         152600 
 305.3818          152700 
 300.86822         152800 
 301.22299         152900 
 300.60979         153000 
 296.23888         153100 
 298.49715         153200 
 299.33265         153300 
 300.28345         153400 
 296.29831         153500 
 297.37583         153600 
 300.50286         153700 
 298.53005         153800 
 302.67977         153900 
 302.10146         154000 
 290.88047         154100 
 295.394           154200 
 297.42873         154300 
 302.0763          154400 
 299.42654         154500 
 302.0962          154600 
 297.87742         154700 
 295.51569         154800 
 298.90812         154900 
 300.82992         155000 
 299.11656         155100 
 300.17907         155200 
 303.6112          155300 
 303.44298         155400 
 301.97743         155500 
 298.77613         155600 
 301.34859         155700 
 303.83175         155800 
 301.78715         155900 
 301.80413         156000 
 295.43675         156100 
 294.55993         156200 
 302.5564          156300 
 305.08798         156400 
 301.28353         156500 
 294.58953         156600 
 296.93495         156700 
 299.01594         156800 
 301.45298         156900 
 301.13693         157000 
 303.50157         157100 
 298.44337         157200 
 292.78729         157300 
 294.42187         157400 
 301.92242         157500 
 304.06983         157600 
 302.88288         157700 
 296.05667         157800 
 300.38795         157900 
 294.25778         158000 
 303.61556         158100 
 300.3381          158200 
 300.15195         158300 
 302.73778         158400 
 300.17234         158500 
 297.42402         158600 
 296.26774         158700 
 302.5508          158800 
 304.60507         158900 
 299.44867         159000 
 300.48513         159100 
 306.14728         159200 
 303.34547         159300 
 295.35935         159400 
 297.89125         159500 
 301.37097         159600 
 301.69401         159700 
 305.83822         159800 
 304.09315         159900 
 301.40539         160000 
 295.8801          160100 
 296.66286         160200 
 297.98446         160300 
 303.10729         160400 
 304.68329         160500 
 296.30806         160600 
 300.29889         160700 
 300.6531          160800 
 303.28539         160900 
 302.81612         161000 
 302.30465         161100 
 296.7111          161200 
 301.3351          161300 
 296.06335         161400 
 303.30255         161500 
 300.74493         161600 
 299.01577         161700 
 297.71643         161800 
 295.18755         161900 
 303.56978         162000 
 302.65438         162100 
 301.06944         162200 
 299.48773         162300 
 293.26364         162400 
 300.44087         162500 
 303.80054         162600 
 302.35764         162700 
 299.03606         162800 
 292.54566         162900 
 296.80247         163000 
 296.51756         163100 
 301.51915         163200 
 301.44256         163300 
 300.70339         163400 
 292.90154         163500 
 298.5389          163600 
 298.78106         163700 
 300.59364         163800 
 301.17437         163900 
 299.62688         164000 
 300.0819          164100 
 296.11498         164200 
 292.46773         164300 
 303.74403         164400 
 298.54021         164500 
 299.80458         164600 
 298.37492         164700 
 294.17091         164800 
 298.63862         164900 
 300.3526          165000 
 300.49206         165100 
 299.62017         165200 
 300.23333         165300 
 297.30823         165400 
 297.28353         165500 
 300.1941          165600 
 301.68472         165700 
 305.31057         165800 
 300.41563         165900 
 298.10743         166000 
 290.72915         166100 
 294.53839         166200 
 297.36927         166300 
 303.56269         166400 
 298.07322         166500 
 300.96424         166600 
 293.9012          166700 
 297.53861         166800 
 296.09406         166900 
 299.08168         167000 
 300.5766          167100 
 299.37185         167200 
 302.37408         167300 
 302.15349         167400 
 301.45288         167500 
 300.02355         167600 
 294.05119         167700 
 302.76401         167800 
 301.40563         167900 
 299.26701         168000 
 297.2452          168100 
 299.83192         168200 
 297.94707         168300 
 308.06901         168400 
 297.70478         168500 
 301.36363         168600 
 296.98105         168700 
 302.2319          168800 
 299.10882         168900 
 298.54401         169000 
 307.85472         169100 
 304.72644         169200 
 303.26616         169300 
 300.24036         169400 
 299.57067         169500 
 299.58853         169600 
 302.37869         169700 
 303.87604         169800 
 300.47758         169900 
 302.38446         170000 
 301.50137         170100 
 294.87195         170200 
 299.86188         170300 
 296.64918         170400 
 301.17709         170500 
 298.51697         170600 
 296.43978         170700 
 297.40923         170800 
 302.08002         170900 
 301.86774         171000 
 300.43439         171100 
 297.5268          171200 
 294.21451         171300 
 301.64258         171400 
 303.38911         171500 
 298.19247         171600 
 299.29011         171700 
 298.86909         171800 
 300.2379          171900 
 303.38119         172000 
 307.09399         172100 
 302.9724          172200 
 299.52922         172300 
 296.54682         172400 
 298.15985         172500 
 305.09056         172600 
 302.96164         172700 
 297.40107         172800 
 296.17016         172900 
 299.41372         173000 
 302.54934         173100 
 302.8036          173200 
 300.82701         173300 
 298.64359         173400 
 299.30309         173500 
 295.13748         173600 
 299.8408          173700 
 299.24056         173800 
 300.87806         173900 
 304.55177         174000 
 302.09055         174100 
 299.97824         174200 
 297.446           174300 
 297.51484         174400 
 303.14007         174500 
 303.34016         174600 
 301.28439         174700 
 303.33729         174800 
 298.00414         174900 
 297.03289         175000 
 296.69831         175100 
 304.04951         175200 
 303.07391         175300 
 300.42997         175400 
 294.80987         175500 
 299.32582         175600 
 299.19943         175700 
 299.91664         175800 
 307.37588         175900 
 307.33533         176000 
 298.85722         176100 
 296.85681         176200 
 301.94127         176300 
 301.72253         176400 
 296.5225          176500 
 303.22871         176600 
 300.84476         176700 
 297.62658         176800 
 297.44326         176900 
 298.78911         177000 
 302.34212         177100 
 305.95972         177200 
 293.71241         177300 
 295.53807         177400 
 296.12945         177500 
 303.26141         177600 
 301.64924         177700 
 301.68004         177800 
 301.61411         177900 
 294.5221          178000 
 296.36372         178100 
 298.70217         178200 
 300.98179         178300 
 303.74935         178400 
 300.05827         178500 
 294.87124         178600 
 297.85994         178700 
 303.52197         178800 
 296.05291         178900 
 301.79739         179000 
 309.01191         179100 
 301.49707         179200 
 299.58055         179300 
 302.43034         179400 
 300.06906         179500 
 298.51305         179600 
 299.69977         179700 
 303.07028         179800 
 301.87228         179900 
 298.85294         180000 
 297.93274         180100 
 299.24593         180200 
 302.50582         180300 
 302.29669         180400 
 295.38849         180500 
 296.35526         180600 
 299.74779         180700 
 301.02978         180800 
 299.21518         180900 
 300.18208         181000 
 293.87964         181100 
 295.2418          181200 
 298.31516         181300 
 301.11153         181400 
 300.76512         181500 
 301.60432         181600 
 301.02412         181700 
 294.06399         181800 
 294.50905         181900 
 299.88015         182000 
 296.88394         182100 
 301.22238         182200 
 300.12018         182300 
 300.17929         182400 
 298.21857         182500 
 301.11176         182600 
 299.04365         182700 
 307.35444         182800 
 303.81565         182900 
 293.92045         183000 
 297.31426         183100 
 299.18748         183200 
 305.05506         183300 
 306.38152         183400 
 296.44366         183500 
 296.8527          183600 
 298.53818         183700 
 298.92456         183800 
 301.32367         183900 
 298.74418         184000 
 292.53072         184100 
 295.80899         184200 
 298.01845         184300 
 301.28752         184400 
 300.09271         184500 
 299.57858         184600 
 301.64728         184700 
 298.91811         184800 
 297.44251         184900 
 298.93269         185000 
 300.37762         185100 
 301.5725          185200 
 301.17333         185300 
 303.6539          185400 
 301.12093         185500 
 293.59823         185600 
 293.61095         185700 
 295.38941         185800 
 299.78149         185900 
 300.0759          186000 
 303.03718         186100 
 297.8456          186200 
 296.41571         186300 
 296.78688         186400 
 305.43714         186500 
 304.28584         186600 
 302.84207         186700 
 298.13861         186800 
 294.0297          186900 
 299.78607         187000 
 303.25868         187100 
 298.54157         187200 
 298.4775          187300 
 298.9793          187400 
 301.48616         187500 
 302.4507          187600 
 304.48783         187700 
 300.89154         187800 
 303.7641          187900 
 300.35594         188000 
 299.96884         188100 
 301.15546         188200 
 301.59503         188300 
 298.84399         188400 
 299.72922         188500 
 301.81447         188600 
 295.93149         188700 
 298.38341         188800 
 303.87298         188900 
 302.40819         189000 
 298.38876         189100 
 297.69967         189200 
 302.43397         189300 
 301.87938         189400 
 301.70846         189500 
 301.82777         189600 
 299.76291         189700 
 296.66369         189800 
 299.62624         189900 
 303.15294         190000 
 308.64151         190100 
 304.04694         190200 
 304.91995         190300 
 298.59577         190400 
 300.51083         190500 
 298.72648         190600 
 304.87112         190700 
 303.15411         190800 
 299.05784         190900 
 299.32889         191000 
 298.50721         191100 
 301.17287         191200 
 304.1736          191300 
 302.67034         191400 
 296.00785         191500 
 295.9408          191600 
 299.49502         191700 
 300.8413          191800 
 300.78647         191900 
 300.7885          192000 
 296.37482         192100 
 297.70421         192200 
 299.9762          192300 
 294.46004         192400 
 302.04636         192500 
 300.91045         192600 
 299.12747         192700 
 301.17022         192800 
 300.35613         192900 
 301.8484          193000 
 299.93508         193100 
 300.18612         193200 
 298.02593         193300 
 301.92976         193400 
 303.47779         193500 
 301.63185         193600 
 298.88685         193700 
 294.46379         193800 
 297.94243         193900 
 302.9484          194000 
 301.37251         194100 
 298.77445         194200 
 291.64259         194300 
 300.53551         194400 
 298.36364         194500 
 299.59613         194600 
 298.75375         194700 
 299.599           194800 
 301.14403         194900 
 302.76673         195000 
 300.25966         195100 
 297.83368         195200 
 293.98561         195300 
 304.09133         195400 
 304.90313         195500 
 303.40093         195600 
 300.10884         195700 
 299.71073         195800 
 298.50426         195900 
 297.13693         196000 
 298.00908         196100 
 296.29241         196200 
 299.25635         196300 
 301.88688         196400 
 296.27595         196500 
 295.30446         196600 
 297.32431         196700 
 298.45336         196800 
 300.45273         196900 
 300.76404         197000 
 302.86948         197100 
 295.65047         197200 
 295.89146         197300 
 299.68642         197400 
 299.26202         197500 
 301.88236         197600 
 299.66565         197700 
 297.0144          197800 
 298.56682         197900 
 300.75584         198000 
 307.04987         198100 
 303.43597         198200 
 302.19533         198300 
 295.95885         198400 
 301.53775         198500 
 295.52267         198600 
 303.21245         198700 
 302.37907         198800 
 299.51333         198900 
 298.33787         199000 
 299.53109         199100 
 300.89774         199200 
 301.42192         199300 
 304.26857         199400 
 299.60128         199500 
 302.35767         199600 
 293.29566         199700 
 304.26809         199800 
 300.16437         199900 
 304.12795         200000 
 294.52667         200100 
 298.24364         200200 
 297.29823         200300 
 303.74418         200400 
 298.33353         200500 
 302.10852         200600 
 301.17015         200700 
 296.0341          200800 
 294.88269         200900 
 299.92708         201000 
 301.49388         201100 
 303.00395         201200 
 295.62737         201300 
 293.69304         201400 
 295.84571         201500 
 302.96626         201600 
 299.57312         201700 
 297.94572         201800 
 296.49899         201900 
 295.77901         202000 
 300.67841         202100 
 305.50721         202200 
 299.65449         202300 
 299.75717         202400 
 298.26461         202500 
 299.94314         202600 
 303.02662         202700 
 302.47833         202800 
 300.87848         202900 
 300.27136         203000 
 299.91871         203100 
 305.591           203200 
 300.9625          203300 
 301.21711         203400 
 300.41547         203500 
 296.72576         203600 
 296.93164         203700 
 304.15387         203800 
 306.70132         203900 
 301.42167         204000 
 299.35369         204100 
 298.31811         204200 
 298.78909         204300 
 306.83979         204400 
 300.22531         204500 
 304.76304         204600 
 301.96571         204700 
 300.05932         204800 
 294.33471         204900 
 298.21145         205000 
 305.2199          205100 
 302.1377          205200 
 297.50474         205300 
 298.81152         205400 
 298.43458         205500 
 298.99488         205600 
 302.07689         205700 
 306.38513         205800 
 300.67554         205900 
 299.91676         206000 
 300.57465         206100 
 302.19074         206200 
 304.48915         206300 
 300.85032         206400 
 301.7227          206500 
 299.64721         206600 
 299.97791         206700 
 298.04546         206800 
 296.75214         206900 
 298.82668         207000 
 297.42251         207100 
 299.55795         207200 
 298.38767         207300 
 295.36117         207400 
 296.07486         207500 
 303.42723         207600 
 301.55278         207700 
 301.64733         207800 
 299.78038         207900 
 300.04819         208000 
 304.08333         208100 
 305.62212         208200 
 303.25574         208300 
 303.29204         208400 
 296.88027         208500 
 298.91968         208600 
 300.22006         208700 
 303.7989          208800 
 303.20321         208900 
 298.34938         209000 
 298.04995         209100 
 297.4734          209200 
 300.7712          209300 
 302.02729         209400 
 305.71215         209500 
 297.37084         209600 
 296.46133         209700 
 297.34015         209800 
 299.25303         209900 
 306.25846         210000 
 302.56951         210100 
 297.04013         210200 
 299.83095         210300 
 297.80146         210400 
 304.46236         210500 
 303.20028         210600 
 305.0181          210700 
 301.66783         210800 
 297.80388         210900 
 296.70345         211000 
 305.13079         211100 
 303.45879         211200 
 301.32925         211300 
 299.35259         211400 
 293.87092         211500 
 300.21043         211600 
 302.11887         211700 
 304.46991         211800 
 300.49036         211900 
 295.44418         212000 
 292.79404         212100 
 298.0867          212200 
 301.64525         212300 
 300.50086         212400 
 300.40606         212500 
 295.74885         212600 
 301.50043         212700 
 301.75518         212800 
 304.47207         212900 
 301.3171          213000 
 300.5093          213100 
 298.95456         213200 
 299.60788         213300 
 300.60953         213400 
 304.73447         213500 
 303.59802         213600 
 298.93287         213700 
 299.52958         213800 
 297.91891         213900 
 307.66543         214000 
 303.54882         214100 
 302.95309         214200 
 297.98615         214300 
 300.96144         214400 
 301.14958         214500 
 301.6211          214600 
 300.15046         214700 
 305.56798         214800 
 293.51065         214900 
 300.98067         215000 
 303.09492         215100 
 302.63118         215200 
 305.67616         215300 
 303.17735         215400 
 300.04194         215500 
 298.19394         215600 
 300.92125         215700 
 306.3403          215800 
 303.2953          215900 
 299.84326         216000 
 297.72021         216100 
 299.21262         216200 
 300.62336         216300 
 300.17033         216400 
 301.68593         216500 
 298.4549          216600 
 297.30486         216700 
 296.32878         216800 
 303.4094          216900 
 298.03684         217000 
 302.04573         217100 
 292.67572         217200 
 292.33262         217300 
 299.10891         217400 
 300.98998         217500 
 301.24555         217600 
 296.03452         217700 
 297.91456         217800 
 301.81335         217900 
 305.62865         218000 
 303.82373         218100 
 296.23877         218200 
 298.42414         218300 
 296.46396         218400 
 299.37523         218500 
 301.1213          218600 
 305.07397         218700 
 298.9317          218800 
 300.71172         218900 
 297.58423         219000 
 297.13643         219100 
 293.23746         219200 
 300.23552         219300 
 303.52675         219400 
 301.77282         219500 
 299.9886          219600 
 298.00887         219700 
 294.17445         219800 
 298.68117         219900 
 302.94487         220000 
 303.24536         220100 
 299.54947         220200 
 296.24396         220300 
 299.57368         220400 
 301.05366         220500 
 301.71717         220600 
 305.52402         220700 
 298.61428         220800 
 302.42193         220900 
 297.63911         221000 
 299.69432         221100 
 293.71225         221200 
 298.1051          221300 
 302.9795          221400 
 302.3162          221500 
 299.6924          221600 
 295.37374         221700 
 294.72305         221800 
 296.3372          221900 
 302.3741          222000 
 301.56549         222100 
 300.54669         222200 
 294.35649         222300 
 299.33699         222400 
 296.28791         222500 
 301.0876          222600 
 297.80786         222700 
 301.01598         222800 
 300.3379          222900 
 301.14664         223000 
 298.60357         223100 
 299.45232         223200 
 298.78286         223300 
 303.92961         223400 
 297.00197         223500 
 299.37402         223600 
 298.04611         223700 
 302.42784         223800 
 301.56159         223900 
 301.08536         224000 
 296.83794         224100 
 296.71338         224200 
 304.19297         224300 
 301.54771         224400 
 301.75937         224500 
 300.9671          224600 
 297.64708         224700 
 296.12876         224800 
 301.77579         224900 
 305.1071          225000 
 304.2441          225100 
 299.67152         225200 
 297.20124         225300 
 297.96549         225400 
 300.62267         225500 
 304.36661         225600 
 299.35414         225700 
 299.24894         225800 
 300.90525         225900 
 295.83837         226000 
 299.4483          226100 
 303.35612         226200 
 301.60951         226300 
 298.39222         226400 
 303.20078         226500 
 300.11038         226600 
 309.74992         226700 
 304.46446         226800 
 298.83385         226900 
 298.87983         227000 
 300.00719         227100 
 299.02894         227200 
 300.36201         227300 
 299.46451         227400 
 300.9484          227500 
 302.19671         227600 
 300.95164         227700 
 298.93457         227800 
 302.16931         227900 
 302.93367         228000 
 301.14343         228100 
 292.08863         228200 
 295.94905         228300 
 301.99962         228400 
 304.96579         228500 
 300.73906         228600 
 298.08787         228700 
 299.01489         228800 
 299.77038         228900 
 301.0528          229000 
 305.05648         229100 
 305.27864         229200 
 295.89959         229300 
 298.68169         229400 
 297.36057         229500 
 301.13617         229600 
 305.37477         229700 
 302.88001         229800 
 298.65735         229900 
 300.74195         230000 
 298.01692         230100 
 302.11849         230200 
 299.71675         230300 
 301.78791         230400 
 297.84972         230500 
 298.25476         230600 
 298.72907         230700 
 301.49956         230800 
 303.90601         230900 
 296.51056         231000 
 295.45109         231100 
 298.74807         231200 
 297.56886         231300 
 299.69626         231400 
 303.09758         231500 
 299.23951         231600 
 299.3974          231700 
 298.74632         231800 
 300.34418         231900 
 301.45284         232000 
 301.07632         232100 
 300.07991         232200 
 295.40258         232300 
 300.01687         232400 
 301.85528         232500 
 301.43009         232600 
 293.57861         232700 
 296.31131         232800 
 301.21927         232900 
 301.94496         233000 
 301.63172         233100 
 296.55183         233200 
 300.18803         233300 
 298.33136         233400 
 302.65286         233500 
 299.32734         233600 
 301.00091         233700 
 299.04775         233800 
 300.43263         233900 
 300.02814         234000 
 294.6092          234100 
 298.62172         234200 
 302.04846         234300 
 302.98849         234400 
 298.11034         234500 
 302.12632         234600 
 297.74414         234700 
 302.43128         234800 
 303.53924         234900 
 305.86665         235000 
 300.85093         235100 
 298.49972         235200 
 303.66472         235300 
 297.5898          235400 
 300.31351         235500 
 304.95752         235600 
 301.18036         235700 
 298.58873         235800 
 302.22022         235900 
 295.94039         236000 
 300.03299         236100 
 303.70229         236200 
 300.64197         236300 
 303.68877         236400 
 296.29559         236500 
 300.86657         236600 
 297.75466         236700 
 303.84396         236800 
 300.19426         236900 
 300.82782         237000 
 296.65664         237100 
 297.49563         237200 
 302.19625         237300 
 302.98013         237400 
 303.33954         237500 
 298.8648          237600 
 296.34158         237700 
 294.26454         237800 
 297.51988         237900 
 302.01034         238000 
 304.98338         238100 
 302.21216         238200 
 296.75432         238300 
 302.78165         238400 
 298.63708         238500 
 297.82102         238600 
 303.30708         238700 
 302.22748         238800 
 299.08907         238900 
 300.11398         239000 
 300.71402         239100 
 299.72106         239200 
 297.66575         239300 
 303.00575         239400 
 305.32647         239500 
 300.71713         239600 
 292.0381          239700 
 298.55431         239800 
 298.34812         239900 
 305.22996         240000 
 305.72875         240100 
 299.00189         240200 
 300.14673         240300 
 297.49469         240400 
 298.01137         240500 
 302.67917         240600 
 307.24055         240700 
 301.18968         240800 
 302.37782         240900 
 299.21533         241000 
 300.31166         241100 
 297.52179         241200 
 306.72406         241300 
 302.1825          241400 
 302.07815         241500 
 296.23159         241600 
 298.18568         241700 
 297.63226         241800 
 308.65261         241900 
 305.39613         242000 
 302.18832         242100 
 301.95143         242200 
 298.40723         242300 
 301.76911         242400 
 297.33838         242500 
 303.39243         242600 
 307.14653         242700 
 297.54154         242800 
 296.70819         242900 
 299.37773         243000 
 304.23033         243100 
 302.08586         243200 
 292.91484         243300 
 294.8745          243400 
 301.4002          243500 
 299.07362         243600 
 296.79702         243700 
 296.31544         243800 
 294.6998          243900 
 298.35547         244000 
 301.7656          244100 
 300.4854          244200 
 302.88043         244300 
 302.66208         244400 
 293.47794         244500 
 298.86174         244600 
 302.33534         244700 
 299.60271         244800 
 299.95597         244900 
 297.59697         245000 
 299.57667         245100 
 302.68763         245200 
 299.14331         245300 
 295.49312         245400 
 298.71062         245500 
 304.37364         245600 
 302.86869         245700 
 302.25232         245800 
 299.37148         245900 
 300.10631         246000 
 301.49186         246100 
 308.18505         246200 
 296.9952          246300 
 296.72667         246400 
 294.11626         246500 
 298.13211         246600 
 296.35901         246700 
 301.68484         246800 
 299.03378         246900 
 301.61415         247000 
 299.24577         247100 
 300.51695         247200 
 300.24898         247300 
 300.99957         247400 
 301.24408         247500 
 303.97045         247600 
 300.24665         247700 
 299.58577         247800 
 297.48261         247900 
 298.14864         248000 
 300.04677         248100 
 304.65002         248200 
 301.48275         248300 
 303.5345          248400 
 299.31274         248500 
 300.00581         248600 
 300.00436         248700 
 306.17971         248800 
 305.83052         248900 
 302.89771         249000 
 301.07095         249100 
 295.37885         249200 
 297.41707         249300 
 300.03211         249400 
 302.32482         249500 
 302.50951         249600 
 298.9215          249700 
 301.87438         249800 
 299.44622         249900 
 300.40173         250000 
 303.31455         250100 
 305.09778         250200 
 298.83283         250300 
 298.20004         250400 
 299.9564          250500 
 301.16252         250600 
 300.45366         250700 
 303.02038         250800 
 301.10834         250900 
 299.71687         251000 
 298.18595         251100 
 300.88094         251200 
 305.63274         251300 
 301.31872         251400 
 302.30366         251500 
 298.60744         251600 
 299.68478         251700 
 297.96111         251800 
 305.47396         251900 
 307.19997         252000 
 300.37991         252100 
 301.37389         252200 
 304.34241         252300 
 300.39927         252400 
 300.61002         252500 
 299.38961         252600 
 300.0327          252700 
 296.63579         252800 
 297.2387          252900 
 296.44748         253000 
 304.2329          253100 
 304.06701         253200 
 299.38628         253300 
 298.12796         253400 
 301.72476         253500 
 292.58218         253600 
 301.57357         253700 
 299.62688         253800 
 297.30526         253900 
 303.22816         254000 
 299.64562         254100 
 293.85654         254200 
 301.55634         254300 
 300.91468         254400 
 299.9261          254500 
 302.31729         254600 
 295.84734         254700 
 299.63005         254800 
 298.49061         254900 
 300.80189         255000 
 300.30605         255100 
 300.84067         255200 
 295.18161         255300 
 293.43514         255400 
 299.70274         255500 
 300.15634         255600 
 301.156           255700 
 298.66945         255800 
 296.42569         255900 
 298.10482         256000 
 300.55644         256100 
 298.94501         256200 
 302.48245         256300 
 303.56267         256400 
 299.79315         256500 
 294.42476         256600 
 298.39338         256700 
 300.27004         256800 
 300.59504         256900 
 300.87771         257000 
 299.19183         257100 
 298.69305         257200 
 301.5609          257300 
 301.58669         257400 
 301.25171         257500 
 298.98712         257600 
 299.27037         257700 
 297.02989         257800 
 299.71417         257900 
 303.69329         258000 
 305.04649         258100 
 301.46779         258200 
 297.39954         258300 
 299.24303         258400 
 299.62388         258500 
 303.93289         258600 
 305.92005         258700 
 297.30604         258800 
 299.52635         258900 
 298.98018         259000 
 301.68167         259100 
 304.33388         259200 
 298.83301         259300 
 295.74757         259400 
 299.5492          259500 
 299.42941         259600 
 302.20715         259700 
 300.6194          259800 
 301.86766         259900 
 297.93824         260000 
 299.27523         260100 
 299.82796         260200 
 302.18778         260300 
 301.73272         260400 
 298.96124         260500 
 305.85402         260600 
 307.53273         260700 
 303.50763         260800 
 299.4075          260900 
 301.9636          261000 
 297.2077          261100 
 300.39308         261200 
 302.88878         261300 
 300.2351          261400 
 297.17549         261500 
 300.23845         261600 
 298.05286         261700 
 302.39665         261800 
 296.90662         261900 
 301.75637         262000 
 296.6399          262100 
 291.19483         262200 
 291.75254         262300 
 302.45367         262400 
 298.7991          262500 
 301.67599         262600 
 299.94548         262700 
 302.09917         262800 
 295.14153         262900 
 299.6077          263000 
 302.08236         263100 
 304.64852         263200 
 302.87565         263300 
 299.04878         263400 
 300.93643         263500 
 294.54215         263600 
 293.85402         263700 
 302.45143         263800 
 299.46399         263900 
 300.20779         264000 
 300.04704         264100 
 294.23999         264200 
 300.11567         264300 
 308.07288         264400 
 303.2257          264500 
 297.26427         264600 
 297.05562         264700 
 298.23926         264800 
 301.1191          264900 
 302.21027         265000 
 301.12379         265100 
 303.10593         265200 
 299.23257         265300 
 295.61924         265400 
 296.54447         265500 
 304.18359         265600 
 305.08086         265700 
 305.97176         265800 
 303.56347         265900 
 295.28427         266000 
 295.29567         266100 
 303.21734         266200 
 302.87367         266300 
 301.37746         266400 
 304.76864         266500 
 300.33657         266600 
 299.03639         266700 
 300.63242         266800 
 300.31973         266900 
 304.69116         267000 
 299.67134         267100 
 299.78838         267200 
 304.76851         267300 
 301.16465         267400 
 300.03595         267500 
 302.82946         267600 
 301.20697         267700 
 295.42783         267800 
 295.16779         267900 
 299.26624         268000 
 303.55315         268100 
 301.91134         268200 
 307.51932         268300 
 301.62094         268400 
 296.08101         268500 
 296.42242         268600 
 297.34974         268700 
 302.73781         268800 
 302.42868         268900 
 296.16417         269000 
 296.86519         269100 
 298.9981          269200 
 301.60284         269300 
 300.43011         269400 
 301.72899         269500 
 296.1648          269600 
 299.30181         269700 
 300.28957         269800 
 300.59979         269900 
 300.1642          270000 
 300.22234         270100 
 295.50165         270200 
 296.9502          270300 
 296.10782         270400 
 297.92253         270500 
 300.40785         270600 
 302.1218          270700 
 293.33053         270800 
 293.49105         270900 
 296.98695         271000 
 300.17685         271100 
 299.26452         271200 
 296.74945         271300 
 292.98092         271400 
 294.74572         271500 
 294.77025         271600 
 297.81095         271700 
 301.68807         271800 
 300.33865         271900 
 301.30388         272000 
 297.27575         272100 
 299.69716         272200 
 302.19623         272300 
 305.89192         272400 
 301.01696         272500 
 296.5179          272600 
 294.9976          272700 
 298.90985         272800 
 298.42486         272900 
 302.47296         273000 
 298.16702         273100 
 297.82586         273200 
 301.47592         273300 
 301.24039         273400 
 304.53929         273500 
 301.25324         273600 
 297.94687         273700 
 298.3657          273800 
 299.58916         273900 
 299.02064         274000 
 303.37594         274100 
 302.4224          274200 
 295.27513         274300 
 299.81334         274400 
 294.72973         274500 
 298.21552         274600 
 299.99478         274700 
 301.69664         274800 
 303.24219         274900 
 303.12011         275000 
 302.03093         275100 
 299.74105         275200 
 296.04316         275300 
 299.1465          275400 
 303.52264         275500 
 300.02539         275600 
 297.44694         275700 
 296.51905         275800 
 298.78211         275900 
 300.02996         276000 
 300.05114         276100 
 299.62868         276200 
 300.24479         276300 
 299.01141         276400 
 300.62607         276500 
 295.6147          276600 
 303.04216         276700 
 302.16415         276800 
 303.29951         276900 
 298.86968         277000 
 299.6339          277100 
 305.53011         277200 
 302.99853         277300 
 300.18151         277400 
 297.55928         277500 
 297.72622         277600 
 298.97139         277700 
 302.9033          277800 
 303.6094          277900 
 299.46868         278000 
 298.72205         278100 
 303.90709         278200 
 300.31918         278300 
 298.19283         278400 
 299.32021         278500 
 297.55194         278600 
 301.63725         278700 
 301.47467         278800 
 302.47252         278900 
 297.43907         279000 
 295.84965         279100 
 296.92368         279200 
 295.44509         279300 
 300.56671         279400 
 302.50562         279500 
 300.38218         279600 
 298.1983          279700 
 298.29885         279800 
 301.76246         279900 
 299.54768         280000 
 299.8653          280100 
 299.3867          280200 
 297.59134         280300 
 291.4724          280400 
 298.72068         280500 
 301.29891         280600 
 303.96802         280700 
 300.88042         280800 
 298.10676         280900 
 295.71387         281000 
 297.72917         281100 
 301.25083         281200 
 297.81184         281300 
 300.31289         281400 
 299.35385         281500 
 294.23241         281600 
 301.05201         281700 
 303.21854         281800 
 297.38297         281900 
 296.97431         282000 
 299.8182          282100 
 289.41049         282200 
 298.31318         282300 
 294.92252         282400 
 301.58681         282500 
 302.86791         282600 
 300.04231         282700 
 297.99759         282800 
 298.39975         282900 
 298.22745         283000 
 302.07751         283100 
 296.63007         283200 
 300.09912         283300 
 299.0181          283400 
 297.2095          283500 
 296.10443         283600 
 293.95055         283700 
 302.12739         283800 
 303.46873         283900 
 303.33412         284000 
 297.96867         284100 
 292.8819          284200 
 295.81095         284300 
 298.94753         284400 
 299.7508          284500 
 304.53424         284600 
 297.51349         284700 
 296.61061         284800 
 296.17868         284900 
 302.10926         285000 
 299.16971         285100 
 297.74269         285200 
 299.40265         285300 
 299.2473          285400 
 300.31122         285500 
 299.36901         285600 
 299.75784         285700 
 299.0232          285800 
 299.63281         285900 
 300.64072         286000 
 305.47757         286100 
 304.50519         286200 
 299.09071         286300 
 299.56649         286400 
 297.95836         286500 
 301.34662         286600 
 299.63784         286700 
 298.33345         286800 
 296.42602         286900 
 299.32419         287000 
 297.67204         287100 
 304.47451         287200 
 302.10461         287300 
 300.07838         287400 
 301.10149         287500 
 298.50897         287600 
 298.36731         287700 
 301.27444         287800 
[...]
 302.87218         931600 
 299.96033         931700 
 304.7426          931800 
 297.46924         931900 
 300.49463         932000 
 300.66295         932100 
 297.76939         932200 
 294.58373         932300 
 299.21698         932400 
 302.93571         932500 
 310.11528         932600 
 298.13649         932700 
 298.86175         932800 
 298.42804         932900 
 298.90129         933000 
 300.19786         933100 
 297.22445         933200 
 296.72379         933300 
 298.31034         933400 
 302.91274         933500 
 303.53546         933600 
 302.53157         933700 
 296.48384         933800 
 293.25184         933900 
 295.95366         934000 
 299.09163         934100 
 299.42101         934200 
 300.55262         934300 
 303.52853         934400 
 296.35577         934500 
 292.02259         934600 
 297.42523         934700 
 307.21207         934800 
 302.08959         934900 
 298.27176         935000 
 295.44501         935100 
 294.12677         935200 
 300.9313          935300 
 298.53835         935400 
 299.80655         935500 
 302.29996         935600 
 296.36235         935700 
 298.05164         935800 
 297.52611         935900 
 299.93924         936000 
 306.77932         936100 
 303.29058         936200 
 299.05696         936300 
 298.13411         936400 
 299.96059         936500 
 304.14327         936600 
 305.48969         936700 
 305.33169         936800 
 303.58139         936900 
 296.1266          937000 
 296.21429         937100 
 298.13992         937200 
 302.60237         937300 
 308.08812         937400 
 299.14598         937500 
 300.48958         937600 
 297.43254         937700 
 299.99226         937800 
 303.25672         937900 
 306.30591         938000 
 300.98672         938100 
 300.68734         938200 
 301.09333         938300 
 300.56783         938400 
 298.71598         938500 
 296.02019         938600 
 294.96848         938700 
 298.22993         938800 
 297.88718         938900 
 301.97168         939000 
 301.28063         939100 
 300.82022         939200 
 298.8204          939300 
 305.79677         939400 
 302.78699         939500 
 299.80749         939600 
 299.58402         939700 
 295.62366         939800 
 304.15186         939900 
 300.98455         940000 
 304.56329         940100 
 307.0012          940200 
 302.9002          940300 
 300.33172         940400 
 298.42031         940500 
 298.33738         940600 
 297.90984         940700 
 301.68178         940800 
 304.73359         940900 
 300.76446         941000 
 296.3443          941100 
 296.48085         941200 
 299.43345         941300 
 300.1098          941400 
 304.16144         941500 
 307.28768         941600 
 306.86206         941700 
 300.27136         941800 
 302.12713         941900 
 294.93122         942000 
 299.79584         942100 
 302.0003          942200 
 302.14226         942300 
 306.09589         942400 
 303.28855         942500 
 300.90797         942600 
 300.39805         942700 
 301.9095          942800 
 296.76785         942900 
 297.2051          943000 
 302.1021          943100 
 309.1523          943200 
 299.98965         943300 
 293.9167          943400 
 298.34527         943500 
 299.58677         943600 
 300.64564         943700 
 303.61956         943800 
 303.09002         943900 
 297.03365         944000 
 294.83982         944100 
 298.04486         944200 
 300.02077         944300 
 302.5384          944400 
 298.87641         944500 
 294.00277         944600 
 291.5611          944700 
 296.60717         944800 
 300.16035         944900 
 298.35425         945000 
 301.89404         945100 
 299.56169         945200 
 294.71301         945300 
 297.67194         945400 
 299.22259         945500 
 299.97166         945600 
 301.67396         945700 
 297.14731         945800 
 298.61862         945900 
 294.55044         946000 
 302.37378         946100 
 300.87591         946200 
 301.45721         946300 
 300.99637         946400 
 294.174           946500 
 297.02362         946600 
 301.60801         946700 
 299.40441         946800 
 301.59936         946900 
 297.20256         947000 
 296.67303         947100 
 294.03027         947200 
 296.26885         947300 
 302.61003         947400 
 306.79535         947500 
 294.66911         947600 
 296.61792         947700 
 302.85802         947800 
 300.48904         947900 
 304.49837         948000 
 298.61697         948100 
 297.82681         948200 
 295.47416         948300 
 303.73066         948400 
 300.53799         948500 
 301.74722         948600 
 296.07404         948700 
 296.15585         948800 
 299.09597         948900 
 301.58531         949000 
 305.18915         949100 
 300.04001         949200 
 298.76152         949300 
 295.59323         949400 
 298.66702         949500 
 299.30134         949600 
 301.27761         949700 
 302.45063         949800 
 296.39495         949900 
 298.65869         950000 
 302.41044         950100 
 296.95487         950200 
 296.93628         950300 
 305.38941         950400 
 302.31202         950500 
 298.78982         950600 
 297.57425         950700 
 299.33421         950800 
 298.9133          950900 
 304.13334         951000 
 304.80668         951100 
 298.63534         951200 
 299.09294         951300 
 301.07544         951400 
 302.68131         951500 
 297.51475         951600 
 295.35374         951700 
 296.39516         951800 
 301.34932         951900 
 304.32072         952000 
 300.51958         952100 
 297.82477         952200 
 296.71226         952300 
 299.23738         952400 
 301.31356         952500 
 301.97565         952600 
 302.07351         952700 
 300.4676          952800 
 299.5032          952900 
 302.87843         953000 
 301.52041         953100 
 301.11874         953200 
 301.67513         953300 
 307.70621         953400 
 299.52556         953500 
 300.5089          953600 
 299.11624         953700 
 296.9872          953800 
 304.61348         953900 
 297.15608         954000 
 297.83946         954100 
 293.96705         954200 
 298.14738         954300 
 301.35482         954400 
 301.46335         954500 
 302.27483         954600 
 302.95682         954700 
 298.51023         954800 
 295.43817         954900 
 300.74473         955000 
 300.33989         955100 
 301.38717         955200 
 298.33866         955300 
 301.15032         955400 
 294.71826         955500 
 294.44453         955600 
 297.03724         955700 
 304.93481         955800 
 300.75273         955900 
 298.9247          956000 
 295.18923         956100 
 295.20265         956200 
 298.02567         956300 
 300.34378         956400 
 303.37961         956500 
 300.7269          956600 
 299.26665         956700 
 299.01917         956800 
 294.39435         956900 
 300.76806         957000 
 301.71566         957100 
 301.43539         957200 
 298.42629         957300 
 298.43386         957400 
 299.7089          957500 
 302.4158          957600 
 302.97873         957700 
 298.84188         957800 
 296.86338         957900 
 300.5765          958000 
 295.68137         958100 
 308.08761         958200 
 301.99744         958300 
 301.34195         958400 
 305.59709         958500 
 296.43542         958600 
 297.94869         958700 
 299.71661         958800 
 299.98399         958900 
 302.11148         959000 
 301.00455         959100 
 299.32805         959200 
 297.57441         959300 
 303.66435         959400 
 299.14424         959500 
 293.44013         959600 
 297.01002         959700 
 299.18641         959800 
 300.94603         959900 
 299.77669         960000 
 300.22784         960100 
 296.72801         960200 
 298.05758         960300 
 297.27075         960400 
 300.03933         960500 
 300.27318         960600 
 297.31433         960700 
 297.34869         960800 
 297.24902         960900 
 291.97974         961000 
 299.31039         961100 
 305.55019         961200 
 296.86535         961300 
 299.80411         961400 
 297.54095         961500 
 299.08833         961600 
 301.23556         961700 
 302.29705         961800 
 302.97828         961900 
 295.60349         962000 
 297.35365         962100 
 301.01509         962200 
 300.00132         962300 
 304.61576         962400 
 295.11388         962500 
 297.8099          962600 
 298.76343         962700 
 301.76795         962800 
 300.22687         962900 
 299.3971          963000 
 298.04534         963100 
 299.31125         963200 
 303.23285         963300 
 295.59116         963400 
 295.15153         963500 
 298.68999         963600 
 303.37466         963700 
 301.30205         963800 
 298.74758         963900 
 299.23175         964000 
 299.93321         964100 
 296.47983         964200 
 302.44275         964300 
 308.06641         964400 
 300.81463         964500 
 297.65562         964600 
 296.48845         964700 
 300.13243         964800 
 303.79354         964900 
 302.11808         965000 
 295.25002         965100 
 299.43838         965200 
 302.1384          965300 
 298.77676         965400 
 301.04926         965500 
 302.28226         965600 
 294.88804         965700 
 297.87964         965800 
 304.53452         965900 
 301.56567         966000 
 300.62127         966100 
 297.77435         966200 
 295.96828         966300 
 297.31002         966400 
 300.61612         966500 
 302.32012         966600 
 299.23842         966700 
 298.69131         966800 
 294.89244         966900 
 300.86186         967000 
 295.13536         967100 
 297.08885         967200 
 300.71264         967300 
 302.76343         967400 
 297.24139         967500 
 294.10972         967600 
 295.36014         967700 
 299.20384         967800 
 302.01211         967900 
 302.41967         968000 
 300.82343         968100 
 302.30297         968200 
 298.44882         968300 
 300.7175          968400 
 299.19481         968500 
 301.40529         968600 
 296.87522         968700 
 298.85704         968800 
 298.07843         968900 
 304.41198         969000 
 303.22749         969100 
 299.36839         969200 
 296.06076         969300 
 298.09051         969400 
 302.84863         969500 
 300.83852         969600 
 303.50284         969700 
 299.22904         969800 
 291.52955         969900 
 291.20377         970000 
 303.68419         970100 
 297.33373         970200 
 300.85879         970300 
 301.46584         970400 
 298.03614         970500 
 301.4937          970600 
 303.16664         970700 
 296.82612         970800 
 304.08414         970900 
 297.92444         971000 
 299.70226         971100 
 298.53627         971200 
 295.64869         971300 
 301.59036         971400 
 301.73732         971500 
 302.50199         971600 
 300.15907         971700 
 297.1105          971800 
 298.5926          971900 
 301.57885         972000 
 302.45628         972100 
 297.24697         972200 
 299.2627          972300 
 296.6264          972400 
 297.58819         972500 
 308.15011         972600 
 299.28805         972700 
 300.7256          972800 
 303.29905         972900 
 300.99807         973000 
 294.89036         973100 
 296.32998         973200 
 295.93784         973300 
 302.28833         973400 
 299.75876         973500 
 296.7109          973600 
 296.20729         973700 
 298.05913         973800 
 303.92751         973900 
 300.84428         974000 
 300.78342         974100 
 299.61294         974200 
 297.94145         974300 
 300.02616         974400 
 304.60744         974500 
 305.79906         974600 
 298.6055          974700 
 297.27226         974800 
 298.4656          974900 
 301.48763         975000 
 294.26733         975100 
 304.52625         975200 
 301.86456         975300 
 299.25756         975400 
 298.73785         975500 
 296.5469          975600 
 299.62321         975700 
 305.623           975800 
 296.77688         975900 
 297.6499          976000 
 300.51816         976100 
 301.17651         976200 
 304.37711         976300 
 299.05088         976400 
 298.36946         976500 
 298.47826         976600 
 302.14906         976700 
 305.15105         976800 
 300.36856         976900 
 299.80117         977000 
 298.84772         977100 
 298.26531         977200 
 295.22649         977300 
 298.10396         977400 
 302.46544         977500 
 298.68826         977600 
 294.29561         977700 
 300.22809         977800 
 294.23736         977900 
 297.78254         978000 
 301.05429         978100 
 298.47289         978200 
 300.95804         978300 
 301.15231         978400 
 294.77179         978500 
 300.07697         978600 
 302.66069         978700 
 304.26715         978800 
 299.40843         978900 
 297.1307          979000 
 296.94441         979100 
 304.17573         979200 
 299.27838         979300 
 298.60125         979400 
 301.20716         979500 
 299.34151         979600 
 294.38976         979700 
 302.02805         979800 
 302.12958         979900 
 303.76348         980000 
 299.28424         980100 
 299.54547         980200 
 295.55803         980300 
 303.44646         980400 
 300.84821         980500 
 303.77687         980600 
 301.33634         980700 
 296.04883         980800 
 298.67741         980900 
 295.14367         981000 
 303.85921         981100 
 301.49783         981200 
 305.68957         981300 
 295.32145         981400 
 296.24927         981500 
 300.1794          981600 
 298.46577         981700 
 302.63434         981800 
 298.11564         981900 
 297.32025         982000 
 302.83487         982100 
 297.52965         982200 
 302.86564         982300 
 300.20178         982400 
 299.75734         982500 
 300.72273         982600 
 297.20622         982700 
 302.06721         982800 
 306.04303         982900 
 297.94049         983000 
 294.57138         983100 
 295.93022         983200 
 301.45546         983300 
 298.41117         983400 
 303.15672         983500 
 298.50103         983600 
 293.92387         983700 
 296.64943         983800 
 301.60626         983900 
 301.38715         984000 
 302.05601         984100 
 302.26782         984200 
 295.68468         984300 
 294.69755         984400 
 301.11896         984500 
 300.92142         984600 
 301.01109         984700 
 298.12811         984800 
 295.2257          984900 
 296.19962         985000 
 300.52609         985100 
 300.47768         985200 
 299.88374         985300 
 298.2647          985400 
 304.45336         985500 
 302.23993         985600 
 299.15884         985700 
 299.07172         985800 
 303.55428         985900 
 298.45111         986000 
 298.19645         986100 
 299.15792         986200 
 300.8874          986300 
 295.79879         986400 
 295.41404         986500 
 301.77561         986600 
 302.17589         986700 
 298.61578         986800 
 298.72999         986900 
 294.23154         987000 
 291.67105         987100 
 299.30119         987200 
 300.13817         987300 
 299.37677         987400 
 297.75836         987500 
 291.18534         987600 
 296.70677         987700 
 304.45429         987800 
 302.92021         987900 
 300.60111         988000 
 294.5656          988100 
 300.88059         988200 
 296.8162          988300 
 297.67385         988400 
 295.77047         988500 
 302.18335         988600 
 303.60991         988700 
 303.26825         988800 
 295.41523         988900 
 299.53538         989000 
 300.01316         989100 
 303.10042         989200 
 300.31794         989300 
 299.24673         989400 
 298.28804         989500 
 297.58235         989600 
 298.32948         989700 
 300.07848         989800 
 300.54279         989900 
 301.4333          990000 
 301.62485         990100 
 298.01866         990200 
 296.35089         990300 
 298.50197         990400 
 309.87398         990500 
 301.03247         990600 
 303.02608         990700 
 297.70902         990800 
 299.69233         990900 
 300.55776         991000 
 305.53357         991100 
 300.72061         991200 
 298.96736         991300 
 299.0897          991400 
 303.2815          991500 
 303.74571         991600 
 300.03514         991700 
 299.88382         991800 
 302.60325         991900 
 294.62534         992000 
 299.22332         992100 
 300.51805         992200 
 300.62274         992300 
 301.86586         992400 
 302.59944         992500 
 296.22464         992600 
 292.36158         992700 
 296.68013         992800 
 309.29146         992900 
 302.54859         993000 
 301.44052         993100 
 295.18955         993200 
 298.36732         993300 
 304.69931         993400 
 306.69674         993500 
 301.33395         993600 
 296.16926         993700 
 298.83071         993800 
 300.39877         993900 
 301.43593         994000 
 304.45131         994100 
 298.90533         994200 
 295.02872         994300 
 298.82788         994400 
 301.32655         994500 
 300.23453         994600 
 300.16332         994700 
 301.45527         994800 
 297.07831         994900 
 297.79957         995000 
 298.65902         995100 
 299.96788         995200 
 305.14212         995300 
 301.02604         995400 
 300.32845         995500 
 299.46247         995600 
 298.00473         995700 
 299.49939         995800 
 297.83746         995900 
 299.60458         996000 
 299.31591         996100 
 300.5449          996200 
 294.89765         996300 
 300.51605         996400 
 296.56214         996500 
 301.30515         996600 
 300.54912         996700 
 302.51576         996800 
 301.45664         996900 
 298.15127         997000 
 296.94559         997100 
 298.63408         997200 
 300.27942         997300 
 300.63568         997400 
 301.44341         997500 
 302.05541         997600 
 301.17732         997700 
 299.30011         997800 
 305.99548         997900 
 301.16055         998000 
 300.78613         998100 
 300.79941         998200 
 298.11787         998300 
 295.76006         998400 
 301.4427          998500 
 301.43091         998600 
 303.40407         998700 
 298.26972         998800 
 297.1382          998900 
 297.56003         999000 
 304.48543         999100 
 299.08249         999200 
 298.95715         999300 
 294.62481         999400 
 292.0397          999500 
 300.29238         999600 
 300.38094         999700 
 298.11085         999800 
 301.56872         999900 
 301.49843        1000000 
Loop time of 11531.6 on 8 procs for 1000000 steps with 6084 atoms

Performance: 7.492 ns/day, 3.203 hours/ns, 86.718 timesteps/s
96.6% CPU use with 1 MPI tasks x 8 OpenMP threads

MPI task timing breakdown:
Section |  min time  |  avg time  |  max time  |%varavg| %total
---------------------------------------------------------------
Pair    | 7215.2     | 7215.2     | 7215.2     |   0.0 | 62.57
Bond    | 1280.6     | 1280.6     | 1280.6     |   0.0 | 11.11
Neigh   | 1375       | 1375       | 1375       |   0.0 | 11.92
Comm    | 265.2      | 265.2      | 265.2      |   0.0 |  2.30
Output  | 100.56     | 100.56     | 100.56     |   0.0 |  0.87
Modify  | 1266.3     | 1266.3     | 1266.3     |   0.0 | 10.98
Other   |            | 28.69      |            |       |  0.25

Nlocal:           6084 ave        6084 max        6084 min
Histogram: 1 0 0 0 0 0 0 0 0 0
Nghost:          20838 ave       20838 max       20838 min
Histogram: 1 0 0 0 0 0 0 0 0 0
Neighs:    2.45844e+06 ave 2.45844e+06 max 2.45844e+06 min
Histogram: 1 0 0 0 0 0 0 0 0 0

Total # of neighbors = 2458445
Ave neighs/atom = 404.08366
Ave special neighs/atom = 11.467456
Neighbor list builds = 50378
Dangerous builds = 0
unfix			1
#final
write_data		PVA_NP_H2O_EQUILIBRATED_WITH_CHARGE_FINAL.data
System init for write_data ...
Generated 91 of 91 mixed pair_coeff terms from geometric mixing rule
Last active /omp style is dihedral_style harmonic/omp

#parameter
neighbor		2.0 bin
Total wall time: 3:12:12
