LAMMPS data file via write_data, version 15 Sep 2022, timestep = 1000000

6084 atoms
14 atom types
6080 bonds
11 bond types
11116 angles
19 angle types
17688 dihedrals
20 dihedral types

62.659039540309536 100.42796845967881 xlo xhi
73.96703354032176 111.73596245967714 ylo yhi
70.26603754032179 108.03496645967716 zlo zhi

Masses

1 1.00794
2 1.00794
3 12.0107
4 12.0107
5 1.00794
6 1.008
7 1.00794
8 1.00794
9 1.00794
10 1.00794
11 15.999
12 15.9994
13 15.9994
14 28.085501

Pair Coeffs # lj/cut/omp

1 0.038 2.44997
2 0.038 2.44997
3 0.039 3.87541
4 0.039 3.87541
5 0.038 2.44997
6 0 1
7 0.038 2.44997
8 0.038 2.44997
9 0 0
10 0.038 2.44997
11 0.1521 3.1507
12 0.228 2.85978
13 0.228 2.85978
14 0.04 4.05343

Bond Coeffs # harmonic/omp

1 340.618 1.105
2 340.618 1.105
3 322.716 1.526
4 340.618 1.105
5 340.618 1.105
6 340.618 1.105
7 384 1.42
8 540.634 0.96
9 450 0.9572
10 540.634 0.96
11 392.8 1.665

Angle Coeffs # harmonic/omp

1 39.5 106.4
2 44.4 110
3 39.5 106.4
4 44.4 110
5 39.5 106.4
6 46.6 110.5
7 44.4 110
8 44.4 110
9 70 109.5
10 46.6 110.5
11 44.4 110
12 58.5 106
13 33.3 113.4
14 55 104.52
15 39.5 106.4
16 57 109.5
17 57 109.5
18 42.3 113.1
19 31.1 149.8

Dihedral Coeffs # harmonic/omp

1 0.158 1 3
2 0.158 1 3
3 0.158 1 3
4 0.158 1 3
5 0.158 1 3
6 0.158 1 3
7 0.158 1 3
8 0.13 1 3
9 0.158 1 3
10 0.158 1 3
11 0.158 1 3
12 0.158 1 3
13 1 1 3
14 0.13 1 3
15 0.13 1 3
16 0.158 1 3
17 0.158 1 3
18 0.158 1 3
19 0.158 1 3
20 0.3 1 3

Atoms # full

2747 4 4 -0.0862696 65.28373674655303 78.82393607065843 72.46494371821568 0 0 1
2750 4 12 -0.404023 65.85134473401793 79.80193845535896 73.29116251785928 0 0 1
2738 4 10 0.132983 67.69572298768068 78.27003985656243 73.91514576968736 0 0 1
2746 4 3 -0.0565357 65.06725227800791 77.58603161107787 73.35852596675416 0 0 1
2749 4 7 0.150187 64.25637128562872 79.11375573465868 72.0885833929342 0 0 1
2740 4 4 -0.0772326 66.15111279923691 76.725948960808 73.97165381584878 0 0 1
2745 4 10 0.133872 64.46937822252538 77.89725684565637 74.23065006703227 0 0 1
2748 4 1 0.133496 64.41389692682328 76.89335879062249 72.84295062751474 0 0 1
2739 4 3 -0.0546295 67.27455776922187 77.56214677830917 74.59401707016286 0 0 1
2742 4 7 0.158897 65.68070354502314 75.94073072329249 74.66304593926647 0 0 1
2743 4 12 -0.404716 66.74061176145285 75.94180270308652 72.91208232410531 0 0 1
2741 4 1 0.132427 66.74928632521004 78.21819610586753 75.37343161653548 0 0 1
2744 4 9 0.146803 66.07167747619002 75.37689040591872 72.58158692030864 0 0 1
2752 4 10 0.139401 67.20663711704199 78.1786598717549 71.5802988745793 0 0 1
2755 4 1 0.138064 66.51395888079243 79.64039743011553 70.8425188366511 0 0 1
2753 4 3 -0.0505132 66.25081212202576 78.68451098307942 71.27249216656817 0 0 1
1331 2 7 0.155594 63.47693043357946 75.3273485449273 70.81537892508702 0 0 1
1329 2 4 -0.0805544 62.85251286282497 74.49531423689687 71.10950652466634 0 0 1
2756 4 7 0.161078 64.90489758510444 77.15261413452687 70.64286602649643 0 0 1
2733 4 4 -0.08051899999999999 68.4156292057729 76.95710751778151 75.40270134633741 0 0 1
1089 2 10 0.128517 67.18390985601049 74.0356333414942 70.87974581803181 0 0 1
4786 7 12 -0.397186 62.753490882563504 74.82941259669015 75.48345127421925 0 0 0
2735 4 7 0.155642 68.02480867220495 76.08423568433889 75.99655685049991 0 0 1
2754 4 4 -0.0765786 65.66098091395489 77.7593974726791 107.92763137843237 0 0 0
1332 2 12 -0.398529 63.248891909874374 74.2031405352318 72.33998765047505 0 0 1
4728 7 1 0.131545 63.251483889868446 79.90447537170124 74.08928583838241 0 0 0
1333 2 9 0.149937 100.32084792078837 74.48901551598004 72.9810005696504 -1 0 1
1323 2 1 0.128085 100.23807729397335 77.07000290141735 70.28844143590827 -1 0 1
4787 7 9 0.146966 62.9406513959797 74.30397033178083 74.69750967910844 0 0 0
2727 4 1 0.12808 68.96613673315873 77.25105493180187 72.33506687338982 0 0 1
2734 4 1 0.134924 69.40645217520648 75.72056819614504 74.02475880488919 0 0 1
2728 4 7 0.152552 70.12859200130967 78.61853018838296 74.26115340738536 0 0 1
2732 4 3 -0.0530189 69.64982240308072 76.51218349683816 74.67321034911288 0 0 1
2726 4 4 -0.0784919 70.360001133675 77.6028033022457 73.83282520356691 0 0 1
2725 4 3 -0.0556835 69.96977760370588 77.57980636002763 72.39257039030265 0 0 1
2729 4 12 -0.400593 71.72030424187602 77.4334488333599 73.91340523350483 0 0 1
2724 4 10 0.131377 70.59620802423153 76.87455709157197 71.90719886067488 0 0 1
2719 4 4 -0.0771377 70.14015283748077 78.8962733752863 71.67810043663602 0 0 1
2730 4 9 0.145678 72.03618572894536 77.5764608733316 74.80016391380073 0 0 1
2731 4 10 0.132342 70.33506123341864 76.216940202023 75.47805365153155 0 0 1
1065 2 7 0.154595 73.59139884035474 77.82362292818358 71.20139110815275 0 0 1
2718 4 3 -0.0531921 69.91788330045777 78.71314962576375 107.95073662744849 0 0 0
2721 4 7 0.157267 71.15764872416132 79.36313834227634 71.93560179477909 0 0 1
1063 2 4 -0.0699828 74.3924854389655 77.58964812396192 70.5665507057754 0 0 1
5602 8 10 0.132274 74.68976928107364 76.71604897912918 75.45775209868403 0 0 0
2722 4 12 -0.401645 69.15615552637271 79.79418122300538 72.18252974950909 0 0 1
1074 2 9 0.138039 73.42852851939307 74.61055165463297 71.25584011647277 0 0 1
1115 2 12 -0.393752 74.17487004778152 75.11444985065854 73.3999453586571 0 0 1
1116 2 9 0.145945 74.09612165526025 75.04073213644668 72.4250648876194 0 0 1
1062 2 3 -0.0616764 74.96199510073943 78.92917539659621 107.97671757922976 0 0 0
5600 8 12 -0.400657 72.99369315788215 78.73715268960272 75.99046466955976 0 0 0
5601 8 9 0.13806 72.96152547938836 78.17678788802505 75.19529431718023 0 0 0
1072 2 7 0.147958 72.06775794908327 76.08156681136951 70.42918520759828 0 0 1
1085 2 1 0.136002 70.66258537402761 74.34317130914398 70.89296768235747 0 0 1
1073 2 12 -0.407352 73.61880046021042 74.61761751725601 70.32860474458356 0 0 1
1058 2 7 0.147951 74.78797047991871 79.26767964083663 72.3129604790219 0 0 1
2720 4 1 0.123587 68.8841469954985 78.30601095675095 107.78541519153562 0 0 0
2717 4 10 0.135111 70.51918320528391 77.91709148771925 107.61241874360414 0 0 0
2716 4 9 0.135145 71.81976892629059 80.0564587168376 70.49099801323251 0 0 1
5603 8 3 -0.0517908 75.03919690003316 77.50711081313317 76.10404505259727 0 0 0
1066 2 12 -0.392079 75.36384811743469 76.85452662219303 71.26858731297727 0 0 1
1067 2 9 0.149195 74.91416494182597 76.1599868426916 71.69513310522646 0 0 1
5606 8 7 0.15953 75.4690933208334 79.29880577043615 75.07180254048157 0 0 0
1121 2 7 0.160694 76.69388607374631 74.88982750882859 74.62053280294697 0 0 1
1139 2 3 -0.0591917 80.15135619592671 77.4881326426864 71.7169427804328 0 0 1
1133 2 4 -0.09350890000000001 80.8119811341199 76.34982361721916 72.61113631265538 0 0 1
1141 2 1 0.131212 79.14981125978069 77.72410865266743 72.14886773301583 0 0 1
1132 2 3 -0.06279609999999999 80.0601421200929 75.03636919517895 72.63109611151715 0 0 1
1128 2 7 0.152737 78.630150284761 75.98340739305915 73.94739964130598 0 0 1
1126 2 4 -0.0854815 78.65230726968963 75.24365667877578 73.1848687853934 0 0 1
1131 2 10 0.130003 80.13919942357363 74.63963275476809 71.53524243450569 0 0 1
1129 2 12 -0.408815 77.79868352027913 75.69533226486035 72.15161198220127 0 0 1
1130 2 9 0.145114 77.71017991559194 76.67627612999333 72.16770487222242 0 0 1
1134 2 1 0.126243 80.65225840034314 74.46320299482754 73.37196096431639 0 0 1
1138 2 10 0.127348 80.68881599623961 78.43331659826332 71.83493791541136 0 0 1
1136 2 12 -0.412524 81.12118417098725 76.74254289327881 73.91545002517421 0 0 1
1140 2 4 -0.08166710000000001 80.11570881443396 77.2081782476839 107.98644135316746 0 0 0
1137 2 9 0.138823 81.0448777703603 75.91417490499816 74.39066236117641 0 0 1
5604 8 4 -0.06680270000000001 76.00999886021842 78.45977953423106 75.4185831641395 0 0 0
5607 8 12 -0.395817 76.63506960755807 77.6832533599429 74.38726590534012 0 0 0
5608 8 9 0.152382 77.2762578937143 78.27124857218523 74.02168442568926 0 0 0
5614 8 12 -0.39172 78.90938931360625 79.58913609782006 74.83311731783625 0 0 0
5611 8 4 -0.058808 78.19318026228747 79.9864078323609 75.99937314529923 0 0 0
1148 2 1 0.132311 78.36314249687325 78.56585899273506 107.72928942811842 0 0 0
1059 2 12 -0.407988 76.65141711012772 79.8589350907461 71.51264008452735 0 0 1
1142 2 7 0.154183 79.64879347647056 76.26391479011023 107.66503678640501 0 0 0
1143 2 12 -0.399438 81.51382171720336 77.2959198493435 107.56423181954077 0 0 0
1135 2 7 0.150371 81.7899900841136 76.09657423944145 72.1370247005946 0 0 1
5616 8 9 0.160055 78.31455345675538 79.63694729719431 74.04866206163017 0 0 0
1060 2 9 0.142073 76.96866402943252 78.99812612082117 71.15958498436525 0 0 1
1117 2 10 0.133735 75.95456271171818 111.2532207960109 72.42126738638883 0 -1 1
5610 8 3 -0.0455931 77.14187515868949 78.91869776566037 76.37179754262402 0 0 0
5609 8 10 0.141843 77.62863818961469 78.01034637450844 76.72040154746321 0 0 0
1011 2 9 0.140889 85.24163380384095 75.46629340414886 74.30257429612486 0 0 1
1008 2 1 0.13288 85.49237457693823 74.7478988947958 72.07277664179036 0 0 1
1006 2 3 -0.0540066 85.85555442278533 75.75972971991366 72.0906421489951 0 0 1
1005 2 10 0.132308 86.71043272531107 75.63066210041531 72.65482615325567 0 0 1
1000 2 4 -0.0802385 86.21384029297805 76.25236439419824 70.68961548536538 0 0 1
1002 2 7 0.153839 86.63621888042327 77.2792314708367 70.78978513655449 0 0 1
1007 2 4 -0.0794846 84.93107652148137 76.6443119757772 72.88587496836512 0 0 1
1009 2 7 0.159589 84.05119239934876 76.98144066066601 72.25411182229215 0 0 1
1012 2 10 0.131549 86.68778275332214 77.99316072424841 73.33103615390068 0 0 1
1015 2 1 0.130932 85.44117764114681 77.88594760560318 74.64333022183487 0 0 1
1013 2 3 -0.0521039 85.60689183677042 77.87279426422552 73.50285583049809 0 0 1
1010 2 12 -0.406188 84.48670681443606 75.86056910992247 73.96978535187421 0 0 1
1016 2 7 0.154236 84.84050195717235 79.0701147927659 71.85001727812748 0 0 1
1014 2 4 -0.0834733 84.92128965107186 79.13468359242563 72.96508951201527 0 0 1
1017 2 12 -0.404001 85.91063405294142 80.14447913545506 73.2593169578787 0 0 1
1018 2 9 0.14767 85.82065370535658 80.36309596113414 74.21677998052071 0 0 1
1022 2 1 0.129236 82.77432978959685 78.88893433871625 73.00930825979266 0 0 1
1020 2 3 -0.0546894 83.56013337662252 79.57303647390714 73.47710029057838 0 0 1
1019 2 10 0.128431 83.44943897628777 79.38896676866572 74.59914474532023 0 0 1
1004 2 9 0.147166 86.76131832402446 74.45515195190578 107.789136869811 0 0 0
778 2 7 0.15894 87.26646052598358 74.2722998819594 74.67496686612077 0 0 1
1594 3 9 0.146608 88.76411925681232 77.22864809522869 75.7806728891144 0 0 0
2813 5 2 0.146021 88.72768047107932 79.45259329846898 76.8108139696466 0 0 1
2812 5 1 0.15389 89.27170188542414 78.60600715889213 75.26061229224563 0 0 1
2809 5 10 0.152992 87.63192889260395 79.35253387654535 75.41751797161088 0 0 1
772 2 12 -0.403127 89.50125342734 75.52295240928238 73.91313591454245 0 0 1
764 2 7 0.159373 92.19210725001452 75.67118024373012 72.73536017337727 0 0 1
4759 7 9 0.1444 92.24403719609069 78.35557464781252 72.08409129671887 -1 0 0
4758 7 12 -0.405285 92.66510935969349 78.27916744252016 72.93264640613812 -1 0 0
773 2 9 0.148181 90.07500388606707 76.01649552325 73.34364268953311 0 0 1
762 2 4 -0.08093889999999999 91.98832672745942 74.78897162901531 72.18974376770328 0 0 1
1587 3 9 0.148644 91.15390315138893 76.57784402370085 75.12402666482073 0 0 0
1586 3 12 -0.400899 91.02161989157452 77.10436822007298 75.91175683783975 0 0 0
2810 5 3 -0.0441895 88.677704555426 79.48485805215755 75.65467682509733 0 0 1
4756 7 1 0.129862 93.11306236071201 80.05396381806578 71.31586100620564 -1 0 0
759 2 9 0.145596 91.5218413421265 76.83896652465116 71.5212915806661 0 0 1
765 2 12 -0.398915 92.67972119012575 111.54724315571264 72.96491896086735 0 -1 1
2817 5 10 0.137961 89.43450055085738 80.04246043573028 73.0275214712 0 0 1
770 2 1 0.133492 89.92555399053178 74.96332556246766 71.64623555385371 0 0 1
4764 7 7 0.151014 93.83373124413035 76.35153331970398 74.2551434644473 -1 0 0
2811 5 4 -0.0516455 89.17388360396805 80.76156793256692 75.03693561989074 0 0 1
2820 5 1 0.134929 90.95387168105323 80.08235312442231 74.03848571261548 0 0 1
769 2 4 -0.07845100000000001 89.8553416348477 74.2118660318835 73.55213729708404 0 0 1
768 2 3 -0.04743 90.5771352657641 74.28707125040091 72.19068404292611 0 0 1
2814 5 7 0.166553 89.63297447136293 81.37381168464704 75.86943132948525 0 0 1
2818 5 3 -0.0346955 90.0048343197371 80.65316390313178 73.76942850111239 0 0 1
771 2 7 0.15942 90.45897008446882 111.52710191017192 74.37922656768333 0 -1 1
1593 3 12 -0.399466 87.99136599836795 76.74163929608034 75.92177441367996 0 0 0
4755 7 4 -0.08386979999999999 93.95498017839289 78.90242717417753 72.83740148719654 -1 0 0
4757 7 7 0.154686 94.05896179439394 79.60396316568716 73.67191593139212 -1 0 0
1326 2 9 0.145691 99.80542564695959 77.52477406895248 72.84148721367626 -1 0 1
4754 7 3 -0.0544137 94.12391741173211 79.6845802194292 71.55465668252741 -1 0 0
4721 7 1 0.125858 99.52928790442608 78.4441502949167 75.48624131519264 -1 0 0
4753 7 10 0.126991 94.39286732741525 79.04644331087317 70.65630176554498 -1 0 0
1320 2 10 0.131381 99.41150001390221 78.34507834749742 71.25505771680646 -1 0 1
4763 7 1 0.128422 94.64173482616955 77.02949472385144 72.14997791710563 -1 0 0
1325 2 12 -0.400572 99.61517328019839 76.5644351307289 72.95307839469814 -1 0 1
4765 7 12 -0.400939 95.03295259432564 77.73934690557181 75.1548839470009 -1 0 0
4761 7 3 -0.0564952 94.96553699649299 77.7246284592997 72.90354412019194 -1 0 0
4760 7 10 0.127801 95.98652722128958 78.04510445675983 72.86803177294536 -1 0 0
4762 7 4 -0.08354449999999999 94.87305963757647 76.78313681101729 74.12972477176557 -1 0 0
4767 7 10 0.12863 96.84938482735194 75.84778236816042 74.22025548316354 -1 0 0
1324 2 7 0.152596 97.75794777524541 76.49050160626966 71.87344799796733 -1 0 1
1322 2 4 -0.07841190000000001 98.87247971678492 76.32028260903526 71.75228573962568 -1 0 1
4768 7 3 -0.058433 95.7673134388619 75.53257967009935 74.07313218886118 -1 0 0
4770 7 1 0.12933 95.82705513076465 75.10612359787234 73.12125644841355 -1 0 0
1328 2 3 -0.0529812 99.11689422202187 74.88011818220325 71.22484269958521 -1 0 1
4718 7 10 0.125123 97.92773625612841 78.83123475946832 74.7590596033969 -1 0 0
4769 7 4 -0.07646509999999999 95.49842264025577 74.46442249576799 75.07620510228892 -1 0 0
1321 2 3 -0.0556466 99.27920380868972 77.34080912728481 70.7394432017094 -1 0 1
4719 7 3 -0.0608074 98.68201268384281 79.17933109821097 75.47356300884661 -1 0 0
4778 7 7 0.159099 98.286825140925 74.02681419992987 74.07699436213579 -1 0 0
4746 7 10 0.131364 96.79115456014813 80.29029935862587 70.6704800461149 -1 0 0
4725 7 10 0.128606 99.5062214354776 80.03027756120775 73.06812720116486 -1 0 0
4751 7 12 -0.399622 95.65119522055988 80.93644571336581 72.9232014559243 -1 0 0
4726 7 3 -0.0514555 100.0840585978667 80.5907644112758 73.87252354895638 -1 0 0
1330 2 1 0.134947 98.65346919639936 74.09222465977166 71.84035480966162 -1 0 1
4783 7 4 -0.081052 99.99205078240311 111.68807695926463 76.38804547472532 -1 -1 0
4879 7 10 0.132162 65.46285919443372 79.86483063443855 76.61119489602497 0 0 0
2751 4 9 0.131964 65.31565108896164 80.55573368907812 73.05460809101601 0 0 1
4892 7 9 0.135012 67.09864510036537 80.1598744463465 75.86776304180479 0 0 0
4729 7 7 0.142828 63.62873457078173 81.90731962424346 72.61665244106261 0 0 0
4730 7 12 -0.395453 63.378712946889216 82.75947763000394 74.45999207581795 0 0 0
4890 7 7 0.144444 68.44910089209937 82.40907423037407 74.96651178181557 0 0 0
5125 8 9 0.138731 65.75491802538558 81.48807282297574 71.59422200605249 0 0 1
5124 8 12 -0.408983 66.20251441786043 82.33015818877094 71.6344870090476 0 0 1
4986 8 10 0.129257 64.77153465477816 86.07010936840736 75.1298168039865 0 0 1
5131 8 12 -0.400137 64.2834757707507 84.05265854733868 70.69173817945997 0 0 1
5122 8 1 0.130226 66.97094612118786 84.7061110195147 70.81027022165794 0 0 1
4891 7 12 -0.413507 67.99833377103437 80.43981812212392 75.661801871202 0 0 0
4989 8 1 0.132549 65.85922700552939 85.41398448869192 73.901361582697 0 0 1
4888 7 4 -0.084774 67.94276262399208 81.88270101618988 75.81620520099415 0 0 0
4889 7 1 0.133467 65.9730280329609 82.14084886421313 75.03534826676622 0 0 0
5120 8 3 -0.0525414 67.57139145882526 83.92978838991783 70.39680519715579 0 0 1
5121 8 4 -0.0779372 66.76411809914569 82.64352242603309 70.386665012247 0 0 1
4979 8 10 0.130646 68.3663582699038 85.55867231516805 74.69981756870035 0 0 1
4987 8 3 -0.0504578 65.65925845070456 86.34056197864358 74.57525555859533 0 0 1
5132 8 9 0.146519 64.2353170965833 83.19249958723594 71.1326171683045 0 0 1
4991 8 12 -0.410556 64.13525371589003 87.06693578734853 72.89857155919213 0 0 1
5115 8 1 0.132004 68.70836204954155 85.84213308281413 72.2936608487483 0 0 1
5116 8 7 0.156904 68.60210738685824 83.43587712809497 72.26398585137231 0 0 1
5114 8 4 -0.083676 68.8027886208485 83.90017350553423 71.29110577716652 0 0 1
4731 7 9 0.146791 63.99742173268819 82.1250539190396 74.92584755922384 0 0 0
4727 7 4 -0.07555000000000001 62.82163699311775 82.00520441331324 73.38024645109677 0 0 0
4992 8 9 0.132847 64.41844437546565 86.37851882294629 72.33288195608935 0 0 1
4887 7 3 -0.0575211 66.52577184395028 82.37598496340681 75.95075116938008 0 0 0
4886 7 10 0.134402 66.71303385817954 83.46664873541465 75.97786645978803 0 0 0
4980 8 3 -0.0474307 68.13279476038662 86.51742197189455 75.20936237686027 0 0 1
4993 8 10 0.133587 66.48947615061591 86.87110718618466 72.05845513325043 0 0 1
5123 8 7 0.159856 67.51574997190718 81.84060456346636 107.98393777326304 0 0 0
2723 4 9 0.14103 69.37063859039058 79.95378831094307 73.12133978109178 0 0 1
5112 8 10 0.133178 69.33788736274423 85.95906062575222 70.53907359904399 0 0 1
5113 8 3 -0.0493605 69.33344745052969 85.38121357580657 71.55653553550043 0 0 1
1056 2 4 -0.0826013 75.22638156607076 79.78012275555007 71.4468197915746 0 0 1
1053 2 9 0.135974 73.38190140661301 80.81475813458042 72.79630727370834 0 0 1
5117 8 12 -0.399983 69.80525700274144 83.10499415930734 70.64759161778751 0 0 1
4897 7 7 0.153252 70.4022896764399 81.76610911614597 75.79507128909383 0 0 0
5109 8 7 0.152853 71.5395311748292 84.96106834446516 71.47762999819034 0 0 1
1052 2 12 -0.414864 73.68305952476575 81.59640965833533 73.2636478226529 0 0 1
5107 8 4 -0.08587980000000001 70.7735233820125 85.43519264943721 72.1355514030599 0 0 1
5110 8 12 -0.400114 70.68482662538035 84.9682368446159 73.43269944959827 0 0 1
5111 8 9 0.152084 69.97465340885618 84.27361047164435 73.4647702280883 0 0 1
5103 8 12 -0.398929 73.37163099431405 86.11416466207127 72.26983249615755 0 0 1
4911 7 7 0.157801 72.432809157671 85.37170002568543 75.83838337498244 0 0 0
1049 2 4 -0.090499 74.6090946724134 82.11618522253323 72.33782757409378 0 0 1
1051 2 7 0.15179 74.1607218546206 83.11306548699093 72.1327853426896 0 0 1
5104 8 9 0.146901 73.36831540272192 86.2634127885027 71.29873665471538 0 0 1
4912 7 12 -0.401054 74.21430936373052 84.51201988886184 75.34329619830493 0 0 0
1057 2 1 0.129903 73.74924450074907 81.19138743839626 70.5882850111845 0 0 1
4909 7 4 -0.0599428 73.43853199613898 85.09342957089316 76.37976598003999 0 0 0
4895 7 4 -0.08292049999999999 70.2485059911741 81.82766195546897 76.87917981791301 0 0 0
4904 7 7 0.157748 72.57196376639398 82.56667600314822 75.79106702677481 0 0 0
1055 2 3 -0.0534421 74.71080215601546 81.16703842028964 71.10052462310335 0 0 1
4977 8 12 -0.398912 70.2501266250761 85.91836322813228 76.1041732316976 0 0 1
5118 8 9 0.142755 70.61664606133782 83.3568782605728 71.0665039065717 0 0 1
2715 4 12 -0.40896 71.41436065219311 80.60424920821856 107.5579113387413 0 0 0
2714 4 7 0.163164 69.34587263804872 80.58590592773878 107.3334633940884 0 0 0
1047 2 10 0.12615 75.54259790075338 82.79827527653704 74.17754540580262 0 0 1
1048 2 3 -0.0598687 75.8866944149342 82.38418238635238 73.18580386930306 0 0 1
1046 2 9 0.152719 75.73911009295665 84.83664426442424 73.39279306363355 0 0 1
1054 2 10 0.135458 75.55567843912971 81.66564799036395 70.5284636143029 0 0 1
1045 2 12 -0.403773 76.02911721368858 84.65855103972696 72.48738424533407 0 0 1
1050 2 1 0.127761 76.38608462427962 81.35900375167951 73.26808340339413 0 0 1
1044 2 7 0.154521 77.19754493393573 83.25471118304317 71.60628461544646 0 0 1
1042 2 4 -0.0833299 76.79185314407813 83.50368610051717 72.61851987770869 0 0 1
1043 2 1 0.132302 77.702315407208 83.19508944678141 74.61416015653946 0 0 1
1037 2 7 0.157925 79.19954686222385 82.26707502916543 72.74753679507096 0 0 1
1035 2 4 -0.0745488 79.21953737670329 83.31844795224312 73.15994003946564 0 0 1
1041 2 3 -0.0496654 77.83379890335956 83.7940294843529 73.6874066275077 0 0 1
1040 2 10 0.129437 77.94230344866774 84.8816280399031 73.87876252692527 0 0 1
1038 2 12 -0.390836 79.61573515022032 84.03486123310732 71.99033674339233 0 0 1
1034 2 3 -0.0498851 80.30269880793763 83.30434010012155 74.26560316424724 0 0 1
1036 2 1 0.140123 80.02133164932208 82.70993131886252 75.16975453360709 0 0 1
1033 2 10 0.136381 80.37323723039152 84.34122427894856 74.65387978175364 0 0 1
1039 2 9 0.158159 80.56238760580923 83.89440124490477 71.79233355788224 0 0 1
5613 8 7 0.158976 77.7094252517013 80.9723392314316 75.86356664174185 0 0 0
1029 2 1 0.130032 81.14023758468785 81.03568127066544 73.03505026039178 0 0 1
4914 7 9 0.159415 74.97201991784043 85.09249766796249 75.14683851196226 0 0 0
5363 8 9 0.135025 79.45209533756874 83.77102872007482 107.40631521794512 0 0 0
5248 8 1 0.137214 76.65033784019475 85.54963842623005 107.62818144813247 0 0 0
1028 2 4 -0.0770523 81.70681939588292 82.94585471702953 73.82266550406788 0 0 1
1030 2 7 0.152966 81.92015600814281 83.37409477024919 72.83985752295301 0 0 1
1032 2 9 0.154577 83.56395370768965 83.2409883089308 74.46172192651075 0 0 1
1031 2 12 -0.396851 82.6523448332899 83.52679906248707 74.71406719683496 0 0 1
1027 2 3 -0.0473342 81.88279017030517 81.44290524045203 73.71516954152818 0 0 1
1026 2 10 0.132851 81.76042735038635 80.99401819141892 74.65098979293778 0 0 1
1025 2 9 0.134935 84.37069513747336 81.29649628252787 71.6670200817349 0 0 1
1024 2 12 -0.409064 83.4261294704227 81.3052025553262 71.74960758714613 0 0 1
1021 2 4 -0.0872843 83.25986369036747 81.07207171838341 73.19694434486287 0 0 1
1023 2 7 0.146818 84.01424496621424 81.66733093876165 73.73268166658421 0 0 1
1774 3 7 0.142099 84.47493286096034 85.50042727125363 74.37975902682075 0 0 0
1771 3 3 -0.047169 86.45461319842632 85.41029615655846 75.04769787363823 0 0 0
1772 3 4 -0.08500820000000001 85.27797271500047 86.21815227382821 74.59835595552131 0 0 0
2377 4 1 0.125486 87.62885283341147 83.38808152526332 71.531702499809 0 0 1
1768 3 12 -0.394887 85.86456799502928 83.02146650525934 75.25383379285827 0 0 0
2371 4 7 0.142476 85.81688052051976 81.63604344196968 71.18079275233399 0 0 1
2372 4 12 -0.413546 87.6641716887669 80.99094953216391 71.27138915601276 0 0 1
2379 4 12 -0.39164 85.19726554432305 84.36500885091064 71.43703446646369 0 0 1
1775 3 12 -0.414463 85.68394495747886 87.03518816981847 73.53601094725936 0 0 0
1770 3 10 0.129756 86.9059099216912 85.08398319353137 74.1848168489591 0 0 0
6057 11 6 0.417 82.14331110282546 85.48041106086797 71.52902742770013 1 1 0
6055 11 11 -0.834 82.7083883789066 85.89553280006325 72.13991913699995 1 1 0
1776 3 9 0.13432 84.93092228653039 87.3540364116817 72.99796884707796 0 0 0
1769 3 9 0.149703 86.62646979952696 82.80057496538278 74.70310659567279 0 0 0
1780 3 1 0.126814 84.92298226796866 86.66594769671684 76.77506982480999 0 0 0
2369 4 4 -0.104948 86.72369621023239 81.71126037465572 70.57554492029882 0 0 1
2375 4 3 -0.0580209 87.13725574029571 83.209997548907 70.55987533937423 0 0 1
2378 4 7 0.158928 86.72364555630385 85.21389811724569 70.44716548777822 0 0 1
2374 4 10 0.124439 87.9467139046981 83.27939296281747 107.59073611067367 0 0 0
2816 5 9 0.140748 88.29472714292909 82.31009025899309 74.7580316132554 0 0 1
2815 5 12 -0.388806 87.99337110826771 81.39209198974669 74.67800738857109 0 0 1
1773 3 1 0.133565 87.14064880273966 86.10759547504615 75.54300690187928 0 0 0
2373 4 9 0.142022 88.52049145497024 80.88808959104213 70.84535201242008 0 0 1
2821 5 7 0.158534 89.15849673961696 82.48611723493944 72.68833698796273 0 0 1
2824 5 10 0.131136 90.80599374643108 81.22179709479533 71.36075718359753 0 0 1
2823 5 9 0.138282 91.60916982042596 82.81379412050805 73.96209974018451 0 0 1
2827 5 1 0.135179 92.12236115359514 81.81639443980222 72.40733520954572 0 0 1
2825 5 3 -0.0518016 91.12445449230088 82.06115597758146 71.9815511965772 0 0 1
2822 5 12 -0.401331 90.67393032771328 82.94222516488912 74.07769637745139 0 0 1
2819 5 4 -0.07429230000000001 90.1071498481731 82.07191319043987 73.10708792620511 0 0 1
2828 5 7 0.159439 91.49865912166464 84.07846077322121 72.0579037289601 0 0 1
2826 5 4 -0.07364080000000001 91.27780781023127 83.34692070065032 71.28039707347867 0 0 1
650 1 7 0.161116 93.14613595067019 84.65628336388029 75.10887069287054 0 0 0
2834 5 1 0.130502 93.38413989393449 83.36209494868923 70.88478413430667 0 0 1
643 1 7 0.150156 92.34713101585926 81.84325026002921 75.7660988719202 0 0 0
6035 4 6 0.417 90.00844407029739 86.30639727760638 75.2977150676205 0 1 0
651 1 12 -0.393041 93.87660118948769 83.14443887532659 73.94973851481811 0 0 0
648 1 4 -0.0765005 93.93193335030502 83.9036180827112 75.10498605414482 0 0 0
658 1 12 -0.396425 94.22780346557438 86.64383101405377 73.9502824175683 0 0 0
6036 4 6 0.417 90.77261797697672 85.73458558149689 74.12913408306075 0 1 0
2829 5 12 -0.403946 90.08917504402652 83.61707707952283 70.56513215530657 0 0 1
2830 5 9 0.146433 89.81131251976103 82.78746773088308 70.2883393317439 0 0 1
6034 4 11 -0.834 90.39257164550668 85.49388657042921 74.95486336041331 0 1 0
1763 3 10 0.133026 88.15818022408718 83.9178577330659 76.44624677174848 0 0 0
2832 5 3 -0.0536191 92.43709719833846 83.21385211942454 70.33357746544293 0 0 1
3067 5 12 -0.405565 89.16376445711474 87.97094571618442 71.37218412415723 0 0 1
659 1 9 0.153563 94.2310250422337 87.24303038527572 73.22682115241919 0 0 0
2836 5 12 -0.398564 92.33173512159411 85.55373188824832 107.51748047485367 0 0 0
4720 7 4 -0.075972 99.18850290254375 80.59691163825856 75.10407063472002 -1 0 0
652 1 9 0.153692 94.57284192379326 82.48421117464798 73.94566080666463 0 0 0
647 1 3 -0.050438 93.96643759196779 83.11085862819712 76.40687894634033 0 0 0
4752 7 9 0.152745 94.96937652120812 81.22716309240117 73.60903732961586 -1 0 0
4630 7 1 0.131166 100.13107363972968 85.44613791423961 76.3789885190947 -1 0 0
4750 7 7 0.15736 94.47168086414581 81.87235004030398 71.58204728745905 -1 0 0
4724 7 9 0.153828 97.61241611331278 81.12171942324557 74.14346433171696 -1 0 0
4732 7 10 0.133925 100.11695157033208 83.64901576505954 72.13624691007897 -1 0 0
4723 7 12 -0.391985 98.05573243556626 81.44628404220929 74.90941205149191 -1 0 0
4747 7 3 -0.0462984 96.03102310706622 81.041012063488 70.55631504156439 -1 0 0
4737 7 12 -0.407147 99.2751217624988 81.8141467258867 70.66831667848379 -1 0 0
4748 7 4 -0.0760412 95.05219741723043 80.93622949200613 71.66047078906895 -1 0 0
4736 7 7 0.154138 98.16968769123493 81.21923952401835 72.23991656768446 -1 0 0
4733 7 3 -0.0541642 99.61825954724004 82.89369707218158 72.76378841153894 -1 0 0
4735 7 1 0.135151 99.08011709309405 83.45998189035329 73.56784047488036 -1 0 0
4742 7 1 0.132253 96.95551069505059 83.45268396387608 72.36524210719395 -1 0 0
4740 7 3 -0.0561964 97.55418347098478 83.07158333599858 71.48570573216062 -1 0 0
653 1 10 0.135564 96.15440561601706 84.16324483660819 74.98983722205756 0 0 0
4734 7 4 -0.085038 98.61519600743263 82.12557031380274 71.88696920098808 -1 0 0
4739 7 10 0.129 97.97916719719154 84.0007501050965 70.97746641522733 -1 0 0
654 1 3 -0.0446174 95.19047149868277 84.7518560774639 75.03542214035411 0 0 0
657 1 7 0.161998 94.86609383134885 84.96633868330687 72.83692759166118 0 0 0
656 1 1 0.130723 95.3550378787867 85.35796887382782 75.90467116843519 0 0 0
665 1 12 -0.394985 96.10015570596092 85.84733854328208 70.99866846224228 0 0 0
4624 7 7 0.157332 97.42840243181857 86.0938905946026 76.4484260904431 -1 0 0
655 1 4 -0.07226730000000001 95.18932790769638 85.57075581435514 73.71070619912804 0 0 0
660 1 10 0.138426 97.33842483554164 85.46138959430009 73.66604318559327 0 0 0
666 1 9 0.154047 96.90761223207762 85.55797115572031 70.48916826319962 0 0 0
646 1 10 0.139439 94.70770042613736 82.30815990261573 76.2605805368039 0 0 0
661 1 3 -0.0537423 96.54293647398273 86.19926808696333 73.42941494118611 0 0 0
4741 7 4 -0.08627650000000001 96.56939292559719 82.49260572980512 70.47489715964876 -1 0 0
4722 7 7 0.15422 99.71789674860685 80.9773491152021 75.95311681540072 -1 0 0
4743 7 7 0.151131 95.68404482045169 83.18867154236725 70.51861843601817 -1 0 0
4988 8 4 -0.0755078 65.27692317330494 87.52796569329148 73.65444847602494 0 0 1
4981 8 4 -0.07844909999999999 66.6841933034582 86.59512870669658 75.65945281134857 0 0 1
4996 8 1 0.133089 67.31448607869325 87.88996016314506 73.30313104765861 0 0 1
4994 8 3 -0.0535156 66.38550637236352 87.75692644775641 72.74343749760547 0 0 1
4990 8 7 0.158941 65.07252119360713 88.43527215651514 74.26629624804927 0 0 1
4995 8 4 -0.0897299 66.2474700613847 89.05426091024228 71.88395170796102 0 0 1
5002 8 4 -0.084874 66.51183001022288 91.50564628002994 72.03746030939918 0 0 1
4997 8 7 0.149518 65.30661124512629 89.0438023585589 71.39494308145082 0 0 1
5001 8 3 -0.054933 66.31901851306411 90.26009014868076 72.79100209837182 0 0 1
5000 8 10 0.127703 67.10479537149392 90.17492342635614 73.59180647728279 0 0 1
5004 8 7 0.150912 66.0200216658752 91.55048051827629 71.02284844189805 0 0 1
5003 8 1 0.132879 65.33983289335829 90.36160373930264 73.24661052407494 0 0 1
4610 7 7 0.162019 64.48184024244694 90.14878974656703 75.52883109888566 0 0 0
4608 7 4 -0.0663521 63.59926413919077 90.69616287491569 75.85082891244453 0 0 0
5005 8 12 -0.412603 67.88768488073066 91.76168175563326 71.90368948258913 0 0 1
4611 7 12 -0.388879 63.46459652882823 91.91321775566618 75.05515300342985 0 0 0