LAMMPS data file via write_data, version 23 Jun 2022, timestep = 10000000

3092 atoms
19 atom types
3101 bonds
17 bond types
5792 angles
31 angle types

29.892868940308 60.06312905969027 xlo xhi
28.87536994030804 59.04563005969031 ylo yhi
29.665370940308 59.83563105969027 zlo zhi

Masses

1 1.00794
2 1.00794
3 12.0107
4 12.0107
5 1.00794
6 1.00794
7 1.00794
8 1.00794
9 15.9994
10 15.9994
11 12.0107
12 12.0107
13 1.00794
14 15.9994
15 15.9994
16 12.0107
17 12.0107
18 1.00794
19 15.9994

Pair Coeffs # lj/cut/omp

1 0.038 2.44997
2 0.038 2.44997
3 0.039 3.87541
4 0.039 3.87541
5 0.038 2.44997
6 0.038 2.44997
7 0 0
8 0.038 2.44997
9 0.228 2.85978
10 0.228 2.85978
11 0.148 3.61705
12 0.039 3.87541
13 0.038 2.44997
14 0.228 2.85978
15 0.228 2.85978
16 0.148 3.61705
17 0.148 3.61705
18 0 0
19 0.228 2.85978

Bond Coeffs # harmonic/omp

1 340.618 1.105
2 340.618 1.105
3 322.716 1.526
4 340.618 1.105
5 340.618 1.105
6 340.618 1.105
7 384 1.42
8 540.634 0.96
9 833.72 1.208
10 283.092 1.52
11 340.618 1.105
12 615.322 1.23
13 322.716 1.526
14 340.618 1.105
15 384 1.42
16 540.634 0.96
17 384 1.42

Angle Coeffs # harmonic/omp

1 39.5 106.4
2 44.4 110
3 39.5 106.4
4 44.4 110
5 39.5 106.4
6 46.6 110.5
7 44.4 110
8 44.4 110
9 70 109.5
10 46.6 110.5
11 44.4 110
12 58.5 106
13 39.5 106.4
14 57 109.5
15 57 109.5
16 46.6 110.5
17 45 109.5
18 50 120
19 68 120
20 46.6 110.5
21 44.4 110
22 55 120
23 39.5 106.4
24 70 109.5
25 57 109.5
26 70 109.5
27 57 109.5
28 80 109.5
29 70 106
30 80 109.5
31 58.5 106

Atoms # full

2928 7 13 0 32.06828813789962 32.670628814681876 31.7856097764288 2 3 3
838 2 3 0 34.09997561892031 32.36802616293431 35.3068685810437 0 0 0
831 2 3 0 34.00845434631344 30.516573300909016 33.44475659528058 0 0 0
832 2 4 0 34.640360220753124 31.043943050722035 34.7636273274879 0 0 0
2924 7 12 0 32.58501622801658 33.609782510056846 31.41886495984026 2 3 3
840 2 1 0 34.98023784624622 33.06012385000122 35.51685302937413 0 0 0
2929 7 13 0 33.41005021502748 33.69612071075812 32.03643976206345 2 3 3
1043 2 1 0 30.26782093252157 31.662295319412554 33.526403540296165 1 0 0
1033 2 8 0 30.793082242139167 29.638757874238355 33.860744356978174 1 0 0
826 2 1 0 33.69617942271921 29.89686141435398 30.90159064233252 0 0 0
825 2 4 0 35.085712634511836 29.88519580825569 32.576787360730556 0 0 0
847 2 1 0 32.146127146037735 33.934265713622196 35.41139482184332 0 0 0
833 2 1 0 33.4856776912884 31.373845815097326 32.94919124482669 0 0 0
830 2 8 0 33.230775995509376 29.738616703684833 33.61421743026808 0 0 0
1232 2 1 0 31.65098403253529 31.194921379389907 30.02481960664848 0 0 1
799 2 5 0 35.296095551436935 33.65819957055075 30.717778538550963 0 0 0
797 2 4 0 35.241196647285804 34.45323509885097 30.007960884620072 0 0 0
1040 2 8 0 30.070539589933677 32.13988226651016 31.84523917698623 1 0 0
1034 2 3 0 59.977478645632445 29.32716591983562 33.524892729339705 0 0 0
837 2 8 0 33.71373130337121 32.93156785732552 34.32897845088411 0 0 0
1036 2 1 0 59.31866429636564 29.464953938621807 34.432962879404386 0 0 0
1047 2 8 0 29.90756625684707 33.790793261308586 34.12423128780079 1 0 0
1038 2 15 0 59.875755304920304 29.989428407141524 31.090069024579506 0 0 0
824 2 3 0 34.44043103394926 29.241231185560945 31.331873302576437 0 0 0
835 2 10 0 34.55131664545551 29.95494254286424 35.68849382380151 0 0 0
2927 7 17 0 33.13987923261612 33.430397300762614 29.971763333894266 2 3 3
1041 2 3 0 59.714069697931336 31.68549582801319 32.73375915144369 0 0 0
827 2 5 0 35.71532958642089 30.669064221825046 32.144095746909464 0 0 0
834 2 5 0 35.776320500475016 31.160916628157707 34.619161199174705 0 0 0
775 2 3 0 39.48726927307943 31.443083302989137 32.196463935993705 0 0 0
776 2 4 0 39.359904053661936 32.85869044173313 32.82237373944595 0 0 0
782 2 3 0 37.90845390243662 33.00871439448506 33.26859658483614 0 0 0
778 2 5 0 39.58715006861912 33.66606300756536 32.10430471687729 0 0 0
784 2 1 0 37.20947405525101 32.80598354093822 32.41367224369686 0 0 0
774 2 8 0 38.439911567561104 31.128421423151778 31.86326885958499 0 0 0
777 2 1 0 40.10036628177927 31.57835692062636 31.395076270167333 0 0 0
769 2 4 0 40.14139357856781 30.38511668190747 33.118024448443705 0 0 0
771 2 5 0 40.950180075706044 30.862345309964766 33.75830186422698 0 0 0
779 2 10 0 40.14202808266873 32.9883539797399 34.01119093599191 0 0 0
781 2 8 0 37.6675532726383 32.44681793092451 34.15400581237261 0 0 0
767 2 8 0 38.15154740460655 30.235548268949266 34.144873577388765 0 0 0
791 2 1 0 35.52809047601623 34.30755993206828 32.71008669434255 0 0 0
780 2 7 0 40.80238525761596 32.35455817288782 33.82248076087601 0 0 0
815 2 7 0 37.89273239523927 31.242474956618516 30.268856662541552 0 0 0
768 2 3 0 39.101882817679645 29.67261195679447 34.027842856961186 0 0 0
806 2 5 0 37.060739569562315 32.62333690931666 30.035101247344308 0 0 0
770 2 1 0 38.96206620806925 58.905129729644855 33.534108549431 0 -1 0
828 2 10 0 35.80328806004477 28.888055095448323 33.28436938207687 0 0 0
772 2 15 0 40.70074190955768 29.31523668961515 32.34028638030296 0 0 0
762 2 4 0 39.60538873771322 29.482002607460437 35.46629632006547 0 0 0
814 2 10 0 37.82448160366515 30.332765515552566 29.883924306013895 0 0 0
2843 1 13 0 42.45823630667691 30.350125119027062 32.82539688762792 -6 -4 -3
2284 4 3 0 45.55664372772658 31.114953323246848 34.18828355385047 0 0 0
2286 4 1 0 45.80891700987248 31.152559781807547 33.11984662891503 0 0 0
2293 4 1 0 46.61829606259534 33.98977676502898 34.101587196869104 0 0 0
2291 4 3 0 45.5889664967108 33.67567898324396 33.72972820428469 0 0 0
1157 2 10 0 45.06444901900159 33.7392235413548 30.273426274060576 0 0 1
1152 2 8 0 45.339592861015475 31.53045178453128 30.293494761904757 0 0 1
1151 2 7 0 47.193196654835766 29.428216911038138 58.777749166310095 0 0 0
2292 4 4 0 44.6953739832724 34.885477976406925 33.7890194823966 0 0 0
1150 2 10 0 47.005772529825215 30.203042696570936 59.32214497333451 0 0 0
2310 4 18 0 48.01225083495296 33.36917648344246 29.782821688732966 0 0 0
1158 2 7 0 45.10461823009457 34.640267718803585 29.970297492880356 0 0 1
2290 4 8 0 45.79156352073677 33.34271640155714 32.689868033972985 0 0 0
2902 5 19 0 48.04808128432054 33.84538325341905 30.63252981328515 -1 1 -1
2285 4 4 0 45.02983501333876 32.48802876668329 34.583438763389765 0 0 0
2294 4 5 0 44.094678002966155 34.78662491093628 34.75313327921636 0 0 0
2297 4 8 0 45.897819049051485 36.514171965185774 34.69399054167446 0 0 0
2279 4 1 0 48.08754062051749 31.337091408116905 33.6554847919513 0 0 0
2835 1 13 0 44.88877216094629 29.181275112395433 31.348697655817894 -6 -4 -3
2837 1 16 0 42.113267794867554 29.267621570092707 32.66446983480167 -6 -4 -3
2842 1 19 0 42.402155281764166 58.76500167310454 33.86910008217988 -6 -5 -3
2277 4 3 0 48.05612979121254 30.6181650664512 34.509990374943335 0 0 0
2276 4 8 0 48.28927460759097 29.608916383070476 34.08733442551601 0 0 0
2903 5 13 0 49.70933105152129 34.8743455422061 30.012789806549637 -1 1 -1
2275 4 18 0 50.113008209760125 32.93609680225627 34.245780462423404 0 0 0
2899 5 13 0 49.455309927229294 31.933774125615553 30.799073118490888 -1 1 -1
2309 4 15 0 49.534685083678895 34.95457984895641 32.10093915708077 0 0 0
2897 5 16 0 49.39924931584537 34.20330629746774 30.8285016176825 -1 1 -1
2898 5 13 0 50.679470512037774 32.72678900855932 31.84552849633763 -1 1 -1
2329 4 5 0 52.53397504385441 34.11418459469569 32.507702444462495 0 0 0
2327 4 4 0 53.16101731615091 33.73111349856796 33.340350319561 0 0 0
2894 5 12 0 50.098802008536815 32.82945533927883 30.927127851955333 -1 1 -1
2273 4 5 0 50.10422780912272 31.350680426992017 34.924674508378416 0 0 0
2893 5 13 0 49.6048250744421 33.4564440668522 58.229812331362595 -1 1 -2
2977 10 19 0 49.53948707138876 33.574471931426096 34.77719538051173 0 0 0
2330 4 10 0 52.59687153680879 32.481566868636435 33.759494448979844 0 0 0
2891 5 12 0 50.962562125616806 32.7013387311207 29.72240392709132 -1 1 -1
2322 4 5 0 51.190571520990694 35.462793916697876 33.97794314039314 0 0 0
2336 4 5 0 53.489991755503326 33.428622555572495 30.896306393962075 0 0 0
2326 4 3 0 53.31830826992233 34.751568449779846 34.452947968688974 0 0 0
2338 4 7 0 53.269203255184124 31.405189457435615 31.747658465311474 0 0 0
2337 4 10 0 54.00180991643175 31.54946737281287 31.133796032299482 0 0 0
2272 4 1 0 49.98230368444726 29.1111507168472 35.47989848221321 0 0 0
2892 5 13 0 49.48201427972696 31.73871639635171 58.89231548746824 -1 1 -2
2890 5 12 0 50.218492642679756 32.522342475942864 58.570812009921205 -1 1 -2
2896 5 13 0 51.439941060385735 31.77446403414291 29.908050575767316 -1 1 -1
2895 5 13 0 51.729719168019585 33.45535717106229 29.716983500398378 -1 1 -1
2332 4 8 0 54.941784384268665 32.44987395279487 33.387189960699 0 0 0
2334 4 4 0 54.33447330593001 32.90329114995816 31.26089208857699 0 0 0
2333 4 3 0 54.521171446047724 33.304404434639295 32.71935135950711 0 0 0
2339 4 8 0 56.30493712323763 32.28002396035411 30.50157971239007 0 0 0
2340 4 3 0 55.58099471090787 33.07815096006034 30.352074370772023 0 0 0
2335 4 1 0 55.25714854293835 34.11842262385196 32.751541988105366 0 0 0
1048 2 3 0 59.111753186450876 33.36432838065816 34.47843422902165 0 0 0
1035 2 4 0 59.3981216813862 30.249043583582917 32.460120060755905 0 0 0
1037 2 5 0 58.3142188412538 30.18648863647576 32.510770892333355 0 0 0
1042 2 4 0 58.63959274822702 32.630759568119785 33.27539434335344 0 0 0
1044 2 5 0 57.75704642470358 32.07560635081663 33.495651897917945 0 0 0
2961 9 13 0 58.271245647457256 31.12526682239154 30.55638231339863 1 1 0
2949 9 17 0 58.80891873284248 30.265979768540824 30.151754692054187 1 1 0
2342 4 1 0 56.08403172530316 33.98290346840878 30.6455813872977 0 0 0
1045 2 10 0 58.37956398863421 33.54915560895611 32.29733292151946 0 0 0
1046 2 7 0 58.34149710288774 33.02738421202548 31.45604411393806 0 0 0
1051 2 5 0 57.16593743456792 34.14544590775127 34.547039767239006 0 0 0
1049 2 4 0 58.1186933499368 34.38933149516326 35.04209155464042 0 0 0
1052 2 10 0 58.55022438177322 35.700058637255296 34.695625341775205 0 0 0
2258 4 1 0 54.558161078196754 59.02904659274723 35.773364777587 0 -1 0
2950 9 12 0 57.990623217248086 28.914453932150643 29.979538272368114 1 1 0
2926 7 13 0 30.551373480059787 34.432660803971885 31.15396478957573 2 3 3
2921 7 12 0 31.582572683808177 34.69958615452328 31.42426750041228 2 3 3
2923 7 13 0 31.66928575718387 35.16029593637302 33.65824371534002 2 3 3
2922 7 13 0 30.559617595945536 36.17312383690001 32.78061452679735 2 3 3
2920 7 12 0 31.553756190111308 35.71263885370096 32.658454193814045 2 3 3
2919 7 11 0 32.67422656626203 36.757925437627996 32.354464159408444 2 3 3
2930 7 14 0 33.05523385796488 37.521749776941945 33.21701281319811 2 3 3
2931 7 13 0 32.659867142872656 37.21383939658737 31.367922506563136 2 3 3
798 2 1 0 34.87536180509113 36.081501241949866 31.240847219364554 0 0 0
857 2 7 0 34.18037929242974 36.16875844355329 34.87605358826178 0 0 0
2925 7 13 0 31.852789744030005 35.354885301822215 30.509599035787815 2 3 3
856 2 10 0 34.439961077704154 35.76412531688995 35.710666481982024 0 0 0
3052 15 19 0 33.796301278566006 39.893940752248646 31.192277275579535 0 0 0
899 2 18 0 33.43151521550563 40.71687485515413 31.544229755499014 0 0 0
3046 15 13 0 31.648875564868593 40.07245956159239 30.445798498895996 0 0 0
168 1 10 0 59.52458478790827 40.774658807695744 37.46693794418733 -1 0 0
169 1 7 0 58.978926740918205 40.02110238464988 37.190732413839896 -1 0 0
160 1 5 0 31.679340694628024 41.1251893560787 34.378189060070284 0 0 0
783 2 4 0 37.63116228776845 34.48693727159616 33.64943021854583 0 0 0
786 2 10 0 37.54656325230209 34.48827978250806 35.05842750112702 0 0 0
787 2 7 0 36.81612821846531 33.97953780156659 35.322816953325685 0 0 0
792 2 5 0 37.52469778690481 34.6952390469772 31.054145654495255 0 0 0
785 2 5 0 38.50237459405299 35.08320971375531 33.420646500799215 0 0 0
789 2 3 0 36.39029123803801 34.99776958784947 32.91028723250957 0 0 0
2809 1 9 0 40.74729962729113 36.1952301036374 31.31984921362371 1 -1 6
796 2 3 0 35.708529882202875 35.71449216174471 30.66611154414126 0 0 0
897 2 5 0 36.16257254749853 40.12654237468031 31.02728976614466 0 0 0
790 2 4 0 36.876869351436724 35.53376085758163 31.549378039296382 0 0 0
788 2 8 0 35.908190259686044 35.8458583762721 33.4577914865991 0 0 0
793 2 10 0 37.66943173544696 36.6986207176552 31.737113040405475 0 0 0
2670 4 4 0 39.55726718182543 39.737386359284066 35.30481205602302 0 0 0
2675 4 8 0 39.32858190287764 40.639336628205 33.50027962212226 0 0 0
794 2 7 0 37.91662404510352 37.081305841960116 30.893290684206058 0 0 0
2676 4 3 0 40.22016237102222 40.41500393474613 34.09373453541 0 0 0
905 2 10 0 38.4187389676421 39.36757880122324 30.80543985600346 0 0 0
906 2 7 0 39.138519103133184 39.990468705086585 31.157258949437075 0 0 0
2671 4 1 0 39.70119411284296 37.88477565328652 34.252417777356655 0 0 0
2669 4 3 0 39.15419021797872 38.31640623711344 35.12091399603145 0 0 0
2668 4 8 0 38.07767710662507 38.26514627117296 34.86629360882166 0 0 0
2678 4 1 0 40.840760321248986 39.66096969336465 33.564524650408586 0 0 0
2674 4 7 0 37.68662746487798 39.87728722939974 35.59977818502375 0 0 0
2672 4 5 0 40.318024548228216 39.76361383903641 36.08950569633678 0 0 0
919 2 10 0 43.87124353792334 39.09683619449047 30.492288197706266 0 0 0
920 2 7 0 43.43128482338599 39.92989483309305 30.53659275178721 0 0 0
2664 4 1 0 41.39720648146123 37.01271937016411 35.19641625876652 0 0 0
2661 4 8 0 40.34098976635787 35.57257219935298 35.4894584718789 0 0 0
2662 4 3 0 40.70030432691322 36.5775527368729 35.90744855600884 0 0 0
2296 4 7 0 44.04305392600488 35.51648734955068 32.222355613570905 0 0 0
2295 4 10 0 43.770074840012896 34.79241415132563 32.76252356901248 0 0 0
2810 1 9 0 41.18315700973046 36.1048088706238 32.45560473378921 1 -1 6
2298 4 3 0 45.42766489732259 36.26948178229784 33.65512355733339 0 0 0
2301 4 5 0 46.2989256521073 35.580300032638945 31.802999319849263 0 0 0
2303 4 7 0 47.16851998162616 38.038881818721464 31.815576605235474 0 0 0
2302 4 10 0 46.29440691931698 37.61734173297527 31.987675606615525 0 0 0
2299 4 4 0 46.504937112817004 36.38152015236267 32.56759793820772 0 0 0
2305 4 3 0 47.94430487472285 36.28327239250524 33.079067042632566 0 0 0
2307 4 1 0 48.208912955719775 37.036354735167045 33.87824569043559 0 0 0
2304 4 8 0 48.05186566342194 35.28606630848921 33.46401288225112 0 0 0
425 1 1 0 48.84445188294416 40.60794451071988 31.468360073751118 0 0 0
2653 4 7 0 41.78688985903263 39.70989043091405 38.791300160614256 0 0 0
422 1 8 0 47.39963622352275 39.82862764992548 30.883418380518393 0 0 0
418 1 1 0 48.18173083416564 41.63403815570517 33.58225983971907 0 0 0
2300 4 1 0 44.77632657712286 37.14779152477654 33.47536509431609 0 0 0
927 2 7 0 46.64082698871316 37.16946602202016 29.82937479231935 0 0 0
2657 4 1 0 43.14541440890031 37.5630240226622 36.2591201412795 0 0 0
921 2 8 0 44.73829435532368 39.38098483774553 58.39092271361436 0 0 -1
2308 4 5 0 48.704334585126425 36.54781249471007 31.09811025747233 0 0 0
2306 4 4 0 49.07663447459829 36.26334385702501 32.027933498821966 0 0 0
2320 4 4 0 52.19930319059276 35.83530847613494 34.31336756562763 0 0 0
2315 4 5 0 51.58896226915023 35.840068803515 31.612532840820148 0 0 0
2319 4 3 0 52.64878904141249 36.84879162979775 33.213708421739504 0 0 0
2311 4 8 0 50.206926379225024 37.46794734490281 33.49361693057778 0 0 0
2312 4 3 0 50.18399593487333 37.29839896872782 32.39584427236737 0 0 0
2313 4 4 0 51.62110658337599 36.86486793234032 32.05075306504922 0 0 0
2316 4 15 0 52.03138788557441 37.83444647016077 31.080738193198428 0 0 0
2314 4 1 0 49.81749746092621 38.21534350692788 31.883537754289087 0 0 0
2318 4 8 0 52.60375075206167 37.79436010130989 33.81891625458707 0 0 0
2321 4 1 0 53.65951706093365 36.52113059555624 32.89846700893382 0 0 0
2979 11 16 0 52.766838417322255 37.22661935233232 29.98912994697769 4 4 1
2990 11 19 0 53.917152513164446 36.52216725310732 30.396463454032354 4 4 1
448 1 10 0 51.70482905152233 40.746596313126965 32.18387850137626 0 0 0
449 1 7 0 51.20820549360085 41.31003415494941 31.597707821635165 0 0 0
454 1 5 0 52.242414811232344 39.795984031312635 35.066781229714735 0 0 0
2985 11 13 0 54.388885827500474 39.02671906529971 30.553199527392234 4 4 1
2317 4 18 0 54.40929935851801 37.062366425439066 31.12932842615998 0 0 0
452 1 4 0 51.3335365569336 40.45511231068622 35.09940278984026 0 0 0
455 1 10 0 50.268761990730304 39.88491587116166 34.30298439758985 0 0 0
2986 11 13 0 53.06321443394397 40.17133225342059 30.139861399198963 4 4 1
447 1 5 0 53.40137675689427 41.26907873408674 33.428730153082206 0 0 0
456 1 7 0 50.67712420334194 39.21039912923785 33.7733777039919 0 0 0
432 1 1 0 50.46960741366012 41.01738577712531 29.86818537448642 0 0 0
2324 4 7 0 51.092730578178156 36.45920526449746 35.815905559658155 0 0 0
2323 4 10 0 52.0313660596635 36.409641633538676 35.600126237416426 0 0 0
2325 4 8 0 53.06832880324268 34.244080190870385 35.404166451739805 0 0 0
2328 4 1 0 54.334867941592364 35.206965280049005 34.44669428467849 0 0 0
1053 2 7 0 59.49459952079563 35.69119948543742 34.60053043043493 0 0 0
2393 4 10 0 54.85172524733147 38.35469585892027 35.71704790186313 0 0 0
2388 4 8 0 54.91589703321237 39.243267431719175 33.493855982429736 0 0 0
2387 4 7 0 55.13878180263179 37.40017529877505 33.847600817287876 0 0 0
2386 4 10 0 56.002920251694306 37.087600081276335 33.65900828104545 0 0 0
2376 4 4 0 58.183599287441766 37.565151551389135 31.38814065170868 0 0 0
2378 4 5 0 59.13929966623548 38.09919068395998 31.629257260261937 0 0 0
2385 4 5 0 57.71540717532599 38.13852055859904 33.87271855542781 0 0 0
2382 4 3 0 56.9706805366932 38.33475564882049 31.830413345160167 0 0 0
2383 4 4 0 56.74690093454025 38.24084008251918 33.38846399414677 0 0 0
2381 4 8 0 56.08560463271935 37.921954993456104 31.26741467582795 0 0 0
2384 4 1 0 57.131550470865946 39.39124034837988 31.600609265235832 0 0 0
2389 4 3 0 55.94430166850503 39.40543456200572 33.84929104868521 0 0 0
2390 4 4 0 55.93956649192457 39.239645108619186 35.40843336003305 0 0 0
2379 4 10 0 58.19872590295997 36.29801827667364 31.980040865569457 0 0 0
2380 4 7 0 58.395823952203536 36.523473760170724 32.89119415601814 0 0 0
2391 4 1 0 56.30054268236061 40.331629244020654 33.420144216608286 0 0 0
2392 4 5 0 56.83524559571841 38.72610517055395 35.782682591037954 0 0 0
162 1 7 0 31.395268878230603 39.312064297988066 33.205779437134396 0 0 0
163 1 8 0 59.76176426423105 39.62411170959018 35.196047225399205 -1 0 0
161 1 10 0 30.58264081111938 39.836008139848936 33.154195326095234 0 0 0
167 1 5 0 30.98851573360961 41.59523847899636 36.61215812758627 0 0 0
890 2 5 0 35.069445910211726 41.745867016314065 32.62007871282566 0 0 0
882 2 1 0 34.03314432636558 42.12036783644576 34.858755437456466 0 0 0
153 1 5 0 31.935667606166177 43.46958697479847 34.19640149198309 0 0 0
884 2 15 0 34.701858843741334 44.305419912324936 33.325495819953964 0 0 0
144 1 4 0 31.957208845756075 45.654064256673934 33.06744155782385 0 0 0
2852 2 17 0 34.36699048776728 45.66747933295667 33.483848361269594 -4 -1 0
881 2 4 0 35.431895978458755 43.6883515415051 34.431688114210594 0 0 0
146 1 5 0 32.01947994486625 45.479927580515444 34.10810299738857 0 0 0
2858 2 13 0 33.97381829734231 45.774218508145836 34.52551892936411 -4 -1 0
880 2 3 0 34.474595748716155 42.95210476059044 35.38496594068545 0 0 0
879 2 8 0 33.857279687410546 43.8181036783782 35.62359076256587 0 0 0
151 1 4 0 31.64244632678168 43.264089696896384 33.1935807694184 0 0 0
150 1 3 0 31.375911426590996 44.512423235657735 32.37433725634496 0 0 0
147 1 15 0 33.26439419131397 46.04282075898504 32.62228425732861 0 0 0
149 1 8 0 31.88695392787798 44.30254108475708 31.409662113714987 0 0 0
154 1 10 0 32.72995503115525 42.59493240216503 32.677454424803706 0 0 0
155 1 7 0 32.91291039673658 41.91493374977933 33.3086248051054 0 0 0
152 1 1 0 30.29959495354867 44.54381820184267 32.11576091243477 0 0 0
165 1 4 0 29.90115954023301 41.49966478803491 36.41580667910276 0 0 0
158 1 4 0 30.689432283884887 41.00913612857469 34.00527154831991 0 0 0
157 1 3 0 30.478765301690085 42.25100656444513 33.170073075759205 0 0 0
156 1 8 0 30.15392293162924 41.8863902346693 32.124390802741175 0 0 0
892 2 7 0 35.86496275364397 40.04555598831464 33.49440109055389 0 0 0
895 2 4 0 36.35094887805512 41.03498232399939 30.37985364569333 0 0 0
2673 4 10 0 38.42557386897472 40.400857785690505 35.81177722540662 0 0 0
2677 4 4 0 41.05346659449275 41.548561719525274 34.581432918646506 0 0 0
2681 4 7 0 42.97642014633637 41.26885544974017 34.52723289374208 0 0 0
891 2 10 0 36.666128595850616 40.5636510733785 33.27016532173571 0 0 0
883 2 5 0 35.84526841560441 44.489568325538436 35.03762575027501 0 0 0
888 2 4 0 36.14293226175021 41.84909925655295 32.78510197949248 0 0 0
887 2 3 0 36.61653598262985 42.965007546032396 33.80295486577606 0 0 0
2853 2 13 0 36.39862040858651 46.280660902932915 33.362307162590476 -4 -1 0
2680 4 10 0 42.251239154777 40.954964187977914 35.101290148490236 0 0 0
896 2 1 0 36.596214177732904 43.14840527316728 31.068614058145847 0 0 0
894 2 3 0 36.76619774355585 42.08417486436482 31.374256769514435 0 0 0
2679 4 5 0 40.555940517609045 42.0422551975511 35.38032260864991 0 0 0
2683 4 3 0 41.56461015917351 42.626862447499626 33.5428044378262 0 0 0
2686 4 5 0 39.545837833736066 43.178101500134666 32.81476788116019 0 0 0
886 2 8 0 37.150598657483634 42.44517266007416 34.58617791450571 0 0 0
893 2 8 0 37.79220117750753 41.96362917295178 31.492372695333355 0 0 0
889 2 1 0 37.2106226358721 43.756252687781526 33.29396577799761 0 0 0
2697 4 3 0 38.96773116552045 45.45386810517963 31.11224593650438 0 0 0
2696 4 8 0 38.46133969039371 45.041115329240945 32.05297792919298 0 0 0
2692 4 1 0 41.57499797522558 44.641565257059106 31.632964224607072 0 0 0
2701 4 10 0 40.381376160165644 46.3179704056061 32.81860876270937 0 0 0
2684 4 4 0 40.56498920357628 42.84801218073565 32.37051590156939 0 0 0
2690 4 3 0 40.950676353390634 43.846249616599636 31.2370768165943 0 0 0
2691 4 4 0 39.75244779119955 44.31799012542492 30.439816820341456 0 0 0
2702 4 7 0 41.30002642472297 46.050620993679416 32.80655317392253 0 0 0
2698 4 4 0 39.85495889485647 46.61447533890054 31.528643296755046 0 0 0
876 2 5 0 36.06236844234411 42.019970064256604 36.40878018737914 0 0 0
1910 3 8 0 40.35528164759935 45.01353412664362 35.74465325301536 0 0 0
2699 4 1 0 38.11073848919751 45.72042257942261 30.48167393252846 0 0 0
2682 4 8 0 42.62271352831229 42.381794262224005 33.22506994111367 0 0 0
411 1 1 0 46.65346713042014 40.77573880001791 36.00198684983201 0 0 0
2689 4 8 0 41.67452866555735 43.28848128971821 30.600928564562672 0 0 0
423 1 3 0 47.90115380127665 40.77097420642385 30.95376037253343 0 0 0
420 1 10 0 47.57541877152132 42.90203806256189 31.706982381265938 0 0 0
421 1 7 0 47.296365585270266 43.24181789872896 30.853140355688154 0 0 0
2685 4 1 0 41.668284610635524 43.60907593862535 34.04925779413219 0 0 0
424 1 4 0 48.24940121755212 41.35952504641972 59.733342857909406 0 0 -1
417 1 4 0 47.04480417820263 41.60207754125451 31.828927814900037 0 0 0
419 1 5 0 45.943701710639075 41.600887767103764 31.544398297087113 0 0 0
415 1 8 0 47.39262419441409 39.96805400059604 33.30871863445611 0 0 0
412 1 5 0 45.741748819695836 42.569016203120476 33.8253273608449 0 0 0
416 1 3 0 47.248573194368014 41.05804233959014 33.30610156758216 0 0 0
410 1 4 0 46.03399433419242 41.56645086318711 34.15046610464216 0 0 0
384 1 5 0 46.641139940791575 45.984258705213854 32.93500827299199 0 0 0
426 1 5 0 47.70243206342853 42.3253010471671 59.65531800918481 0 0 -1
3073 17 13 0 44.1455258479904 46.11186055221845 32.10305185851083 0 0 0
383 1 1 0 46.81651132876965 45.3538901924589 31.09961305882128 0 0 0
404 1 1 0 47.35826831099556 43.96277116023372 34.43547312975955 0 0 0
381 1 3 0 47.691057716245 46.00208907304885 31.291005330506273 0 0 0
3079 17 13 0 42.94669611718324 45.746187521731436 30.197866489708115 0 0 0
372 1 18 0 44.278720084738204 44.61876072919773 30.045590653951 0 0 0
3082 17 19 0 44.95070679222966 44.817967802239885 59.5123790396197 0 0 -1
414 1 7 0 44.439591213816485 41.29138104294653 33.26205242176464 0 0 0
413 1 10 0 44.959746737463455 40.696709888191464 33.83399597941045 0 0 0
376 1 1 0 47.54030593194736 44.84053557426256 59.113210771961946 0 0 -1
374 1 3 0 47.82414081781292 45.87190693906498 58.928145680967425 0 0 -1
3077 17 16 0 44.57162171522299 46.023557778968005 58.87743113695259 0 0 -1
380 1 8 0 48.54635126046428 45.36515584102339 31.530119603102577 0 0 0
439 1 1 0 52.071158507031406 42.494731997367644 29.915161714506123 0 0 0
445 1 4 0 52.3811304570473 41.58764275344638 33.12466695960337 0 0 0
446 1 1 0 53.34805842462768 43.18720399162697 31.720854829257853 0 0 0
436 1 8 0 52.07958215152672 44.19852030997846 29.835279371702256 0 0 0
391 1 5 0 48.909297601584086 45.06128087147201 33.59944505583289 0 0 0
437 1 3 0 51.50236311711947 43.36596142426146 30.129788547052403 0 0 0
444 1 3 0 52.52443871475906 43.026655032758576 32.35269705786652 0 0 0
443 1 8 0 52.55919273036197 43.81933692262171 33.11311830651146 0 0 0
441 1 10 0 50.85038918057189 44.78859241608629 31.96701790424142 0 0 0
440 1 5 0 50.38305987499798 42.81831116119339 31.878757354988867 0 0 0
438 1 4 0 51.20983483218958 43.42280425132822 31.624995692916954 0 0 0
442 1 7 0 50.436829295767524 44.73323570465484 32.81075240560973 0 0 0
389 1 4 0 49.1214207906971 46.01315629978361 34.08238605301102 0 0 0
392 1 10 0 50.53470312952478 46.182354134953705 34.177669460309126 0 0 0
451 1 3 0 51.66698661055787 41.77506395723867 34.460283544254395 0 0 0
453 1 1 0 52.26730188999297 42.5038051108504 35.055805743768346 0 0 0
450 1 8 0 50.782931509685966 42.42623775327516 34.363884604151444 0 0 0
401 1 8 0 48.59010246415679 42.98855731504152 35.16044289421335 0 0 0
1402 2 10 0 52.284341498199105 47.23151050296645 32.07564833658067 -1 -1 1
1401 2 5 0 53.20694033179882 46.437273476409814 30.477179336051755 -1 -1 1
1399 2 4 0 53.230022172099396 47.34990856185103 31.036083540777586 -1 -1 1
1404 2 7 0 52.439832325697175 46.318297957899766 32.35065454378899 -1 -1 1
1403 2 6 0 54.22073424651294 47.358493888144395 31.55413241269026 -1 -1 1
140 1 10 0 59.85073798439735 45.92592454756707 34.53001623434176 -1 0 0
164 1 3 0 59.82125030749023 40.73815208491014 35.070395892532105 -1 0 0
166 1 1 0 58.86058194857236 41.03220696952146 34.63715087777777 -1 0 0
316 1 7 0 54.535787621964445 43.58785136207827 34.22099875094401 0 0 0
159 1 1 0 59.80567616030188 42.753074712892904 33.534505735779874 -1 0 0
315 1 10 0 55.37881183247312 43.50835088071923 33.821355010795536 0 0 0
317 1 8 0 57.43582431356476 43.648085653929684 32.58885780879489 0 0 0
2395 4 8 0 55.052285905636076 41.18648997207797 35.568647225008064 0 0 0
310 1 8 0 55.848802147917176 44.743947867253084 35.656923204384995 0 0 0
311 1 3 0 56.414143526228294 45.27882264098981 34.89851151204412 0 0 0
320 1 1 0 57.83610266732627 45.502573215735296 32.73523069146902 0 0 0
312 1 4 0 55.9005617653221 44.7860417873038 33.5311785523867 0 0 0
313 1 1 0 57.49135987839502 45.22045305595764 35.115967809513094 0 0 0
318 1 3 0 57.03586672968164 44.667608533486444 32.49184640236732 0 0 0
314 1 5 0 55.06686537663569 45.36357786039578 33.09322948331229 0 0 0
322 1 10 0 56.656906541057324 46.07022265077544 30.494096338697172 0 0 0
319 1 4 0 56.52697428711896 44.77911048320034 31.056487477558626 0 0 0
305 1 4 0 56.10209943356425 46.67918811829966 35.29676215090514 0 0 0
321 1 5 0 55.44141007172345 44.60756799940403 31.111276931684124 0 0 0
323 1 7 0 55.76833372098757 46.459935758553314 30.54733647746277 0 0 0
307 1 5 0 55.03224661200757 46.75592743728654 35.42125429158042 0 0 0
141 1 7 0 30.33179364087026 45.353851175961644 34.10880939505062 0 0 0
308 1 10 0 56.47969184422661 47.510246394409556 34.217996249006305 0 0 0
309 1 7 0 57.256812292639594 48.04343009655378 34.46314373834519 0 0 0
143 1 3 0 31.014909956071747 46.8494501805361 32.84916514455685 0 0 0
145 1 1 0 30.32639040575764 46.68358876466092 31.964722295124968 0 0 0
2849 2 12 0 35.42758789189465 46.58156314961534 33.011359595250646 -4 -1 0
138 1 1 0 31.61420767754711 47.369517994497436 35.53316900838381 0 0 0
2854 2 13 0 35.48742431082549 46.515151904660904 31.88428791932779 -4 -1 0
2851 2 13 0 34.20140686576419 48.45345039352063 33.237498314067935 -4 -1 0
1363 2 3 0 34.01956631307226 51.83256448161847 31.35447197051581 0 -1 1
1365 2 1 0 33.90681161129675 51.06937913765417 32.12961848067043 0 -1 1
1372 2 1 0 31.437935193217225 51.02848021935098 31.758235517788975 0 -1 1
142 1 8 0 31.583103709872113 47.68958310248878 32.47789699657762 0 0 0
2846 2 12 0 35.207263618615904 48.07815476314031 33.355566520028795 -4 -1 0
1370 2 3 0 31.409405556210807 52.10849599161952 31.593696984632093 0 -1 1
1369 2 8 0 30.98507137845926 52.57229036607287 32.513776182404214 0 -1 1
1364 2 4 0 32.76642606698697 52.7179432857014 31.280741255440645 0 -1 1
1371 2 4 0 30.43142438490907 52.26350645181544 30.46391775931539 0 -1 1
2850 2 13 0 35.83495371834916 48.64677771423101 32.69079584793868 -4 -1 0
2845 2 12 0 35.7582876764442 48.24512773370574 34.74974696283043 -4 -1 0
1373 2 5 0 30.49660410799441 53.39059188014586 30.175778837267377 0 -1 1
1366 2 5 0 32.69392780150066 52.91440941516101 30.221547208480366 0 -1 1
119 1 10 0 34.68416515402346 52.11634233070172 34.60811023438392 0 0 0
136 1 3 0 30.697255831957847 47.879648236994676 35.21743872348596 0 0 0
125 1 5 0 32.46416833144395 51.57357983430551 34.80251333946107 0 0 0
120 1 7 0 34.72312065603375 52.92918497229261 34.14311834402472 0 0 0
126 1 10 0 31.32131185199402 52.13614105365779 36.47341664886451 0 0 0
130 1 4 0 30.980787116943286 49.31780317102629 34.84545972031401 0 0 0
123 1 4 0 32.27935167440578 51.37029228221913 35.881913132127856 0 0 0
1357 2 4 0 34.25590624376461 51.14383887164812 29.981705831405105 0 -1 1
1362 2 8 0 34.95469054549524 52.35345337260158 31.6648660876735 0 -1 1
1360 2 10 0 34.92922608600626 49.9140092823931 30.1573144828279 0 -1 1
132 1 5 0 31.57286172118231 49.38146888986563 33.859539910119025 0 0 0
2700 4 5 0 40.74748884057351 46.6734335920565 30.798965538436917 0 0 0