LAMMPS data file via write_data, version 23 Jun 2022, timestep = 1201254

3092 atoms
19 atom types
3101 bonds
17 bond types
5792 angles
31 angle types

29.892868940308 60.06312905969027 xlo xhi
28.87536994030804 59.04563005969031 ylo yhi
29.665370940308 59.83563105969027 zlo zhi

Masses

1 1.00794
2 1.00794
3 12.0107
4 12.0107
5 1.00794
6 1.00794
7 1.00794
8 1.00794
9 15.9994
10 15.9994
11 12.0107
12 12.0107
13 1.00794
14 15.9994
15 15.9994
16 12.0107
17 12.0107
18 1.00794
19 15.9994

Pair Coeffs # lj/cut/omp

1 0.038 2.44997
2 0.038 2.44997
3 0.039 3.87541
4 0.039 3.87541
5 0.038 2.44997
6 0.038 2.44997
7 0 0
8 0.038 2.44997
9 0.228 2.85978
10 0.228 2.85978
11 0.148 3.61705
12 0.039 3.87541
13 0.038 2.44997
14 0.228 2.85978
15 0.228 2.85978
16 0.148 3.61705
17 0.148 3.61705
18 0 0
19 0.228 2.85978

Bond Coeffs # harmonic/omp

1 340.618 1.105
2 340.618 1.105
3 322.716 1.526
4 340.618 1.105
5 340.618 1.105
6 340.618 1.105
7 384 1.42
8 540.634 0.96
9 833.72 1.208
10 283.092 1.52
11 340.618 1.105
12 615.322 1.23
13 322.716 1.526
14 340.618 1.105
15 384 1.42
16 540.634 0.96
17 384 1.42

Angle Coeffs # harmonic/omp

1 39.5 106.4
2 44.4 110
3 39.5 106.4
4 44.4 110
5 39.5 106.4
6 46.6 110.5
7 44.4 110
8 44.4 110
9 70 109.5
10 46.6 110.5
11 44.4 110
12 58.5 106
13 39.5 106.4
14 57 109.5
15 57 109.5
16 46.6 110.5
17 45 109.5
18 50 120
19 68 120
20 46.6 110.5
21 44.4 110
22 55 120
23 39.5 106.4
24 70 109.5
25 57 109.5
26 70 109.5
27 57 109.5
28 80 109.5
29 70 106
30 80 109.5
31 58.5 106

Atoms # full

1232 2 1 0 32.530446173984075 30.510461995947832 30.77529136783609 0 0 1
2927 7 17 0 33.96210886367846 32.87447975518334 30.66182839342106 2 3 3
830 2 8 0 32.96319441494825 30.67549515690578 34.20427668073486 0 0 0
831 2 3 0 33.84278184623763 29.959568400894568 34.45404577638116 0 0 0
2924 7 12 0 33.634427972896106 32.911657614336846 32.16925590885928 2 3 3
833 2 1 0 34.722854540396 30.607283274691717 34.59530082995679 0 0 0
2933 7 13 0 34.41473900992918 31.98063657085476 30.23232717408299 2 3 3
2928 7 13 0 32.95573860561459 32.11837102622902 32.494010020821875 2 3 3
2929 7 13 0 34.52846019675871 32.605540688876616 32.70008798670414 2 3 3
800 2 15 0 34.72180221420147 34.03476325207866 30.17941379638616 0 0 0
823 2 8 0 34.59529633403967 29.951778260649384 31.46840116356807 0 0 0
1234 2 15 0 32.65850247960822 32.95499584799716 30.016325865129232 0 0 1
1040 2 8 0 30.091548951339377 32.06926378496835 30.99039874220147 1 0 0
824 2 3 0 35.01471425883918 29.393984626609438 32.30047744541141 0 0 0
1038 2 15 0 29.931551497724648 29.585030247111483 31.17720968557513 1 0 0
2923 7 13 0 34.65038073964689 34.43276656917415 34.138039992486476 2 3 3
825 2 4 0 34.088506424612625 59.02966203640041 33.46285641065224 0 -1 0
1043 2 1 0 30.44763292320325 32.06381522054225 32.75265715227012 1 0 0
2921 7 12 0 33.05661996161435 34.20174926684433 32.625867082246714 2 3 3
2920 7 12 0 33.5874368413432 34.71819050487577 33.99708166968463 2 3 3
2922 7 13 0 32.976382429445295 34.230757754762024 34.72587631948207 2 3 3
1033 2 8 0 30.364566914949872 29.75739961063639 33.6418542098469 1 0 0
828 2 10 0 32.906051930091245 58.663847686933806 32.86632458499163 0 -1 0
832 2 4 0 33.60953751427277 29.325970099015308 35.88944160907795 0 0 0
1230 2 3 0 32.558840264555606 30.45026004626387 59.83195796845016 0 0 0
826 2 1 0 35.65550912343459 30.177222362012245 32.73435996127386 0 0 0
797 2 4 0 36.10896447777933 33.89094697038021 30.45562821144845 0 0 0
799 2 5 0 36.190353981987 33.58031851872309 31.497551389670903 0 0 0
806 2 5 0 37.36479552217561 31.629379853680717 31.18847494831205 0 0 0
772 2 15 0 39.693412849808716 30.813962734575885 33.02173316461107 0 0 0
804 2 4 0 37.74523973213712 31.842701660054257 30.175078250742924 0 0 0
784 2 1 0 36.82974360077497 33.73344488611009 33.568418929243954 0 0 0
807 2 10 0 39.07108203712569 32.23565002518471 30.24476910366661 0 0 0
769 2 4 0 39.230107317854554 30.562984919851488 34.334901543488954 0 0 0
782 2 3 0 37.56666046651413 34.107750688596965 34.308032062039345 0 0 0
778 2 5 0 39.31167790287206 33.27926844659855 33.40762815795694 0 0 0
776 2 4 0 38.668584362143555 33.08181155382196 34.30471339679374 0 0 0
777 2 1 0 37.367689840773004 31.46373257122463 33.687479721666804 0 0 0
775 2 3 0 38.12929797255725 31.641144819244 34.46251012176389 0 0 0
771 2 5 0 39.965933009343495 30.674002286224745 35.11524432429388 0 0 0
2837 1 16 0 40.79116114652021 29.938651535508026 32.71628553787362 -6 -4 -3
767 2 8 0 37.40463633055673 29.427159434318195 34.57071871610315 0 0 0
2281 4 10 0 41.1506125440658 34.55058371388745 31.413918075113454 0 0 0
816 2 8 0 37.603764529478546 29.66045031080017 31.650553092773066 0 0 0
808 2 7 0 39.15999112765701 32.69516127785616 31.075984325652918 0 0 0
2839 1 13 0 41.389058563999036 31.68683188248295 31.670881139087918 -6 -4 -3
768 2 3 0 38.463214583469586 29.25403247049704 34.52570813220792 0 0 0
2843 1 13 0 41.20102191980881 29.554879431214697 33.66811970928697 -6 -4 -3
781 2 8 0 37.177437452383955 34.129917907251006 35.34087487478151 0 0 0
2834 1 12 0 41.74210307684679 30.66455436882094 31.76968617275232 -6 -4 -3
774 2 8 0 37.57842711239874 31.663021376254907 35.488610235954 0 0 0
2282 4 7 0 40.507717178426375 34.99473850600009 30.851692669259084 0 0 0
792 2 5 0 38.55286225289322 34.67654306124798 31.631897881830344 0 0 0
773 2 18 0 39.38222911000714 58.847669244326966 32.49116817442658 0 -1 0
2838 1 13 0 41.81042814211508 30.113655160326182 30.81912289946598 -6 -4 -3
2272 4 1 0 41.96510736316852 33.873773213451095 34.41236612769854 0 0 0
2831 1 12 0 43.10008735353147 30.749786056474885 32.438124257317874 -6 -4 -3
2276 4 8 0 43.270518233099786 33.616502040615096 32.38542730015395 0 0 0
2835 1 13 0 43.68724768408178 31.37872215236953 31.799989000285976 -6 -4 -3
2841 1 13 0 43.499776973516155 29.06038698564177 34.66603257432439 -6 -4 -3
2898 5 13 0 47.30371325026349 33.85060143070693 33.202352194801335 -1 1 -1
2277 4 3 0 43.405859110441966 34.68931859580043 32.215740539432254 0 0 0
2894 5 12 0 47.553244781993754 33.26003293695221 32.288025216029425 -1 1 -1
2836 1 13 0 42.962622064893054 31.324794876964692 33.41675905778004 -6 -4 -3
2830 1 12 0 43.90360449024216 29.42483881562881 32.609461565127575 -6 -4 -3
2840 1 19 0 45.18135329364308 30.270345078150395 34.2577833798951 -6 -4 -3
731 2 18 0 44.61025760451602 31.02291487346247 34.37587392210462 0 0 0
2899 5 13 0 46.54926293030266 33.20079240819368 31.82295059822505 -1 1 -1
2833 1 13 0 44.84004322369924 29.37817315411715 31.991173421885527 -6 -4 -3
2829 1 16 0 44.320357136957384 29.171538165428046 34.00312504123902 -6 -4 -3
2896 5 13 0 47.44992886976777 31.60938537780755 33.68847987923397 -1 1 -1
2892 5 13 0 46.90072213832481 30.00016091005486 32.25535593676663 -1 1 -1
2270 4 3 0 42.42879805469877 34.839681065476555 34.62330296016229 0 0 0
2265 4 1 0 43.61228947750239 32.58348431200365 35.4894160648125 0 0 0
2258 4 1 0 46.477834957607016 31.906122169801478 35.73675236457938 0 0 0
1165 2 7 0 45.20251188729537 32.092807552095074 59.371323002589726 0 0 0
2897 5 16 0 48.51048282708187 33.90525944040891 31.29639793778651 -1 1 -1
2893 5 13 0 46.896065730945125 31.258775922980174 30.9102859734221 -1 1 -1
2890 5 12 0 47.50861713586298 30.788488845266954 31.720787895864714 -1 1 -1
2329 4 5 0 53.56213202681917 31.131924699015073 32.18751042531399 0 0 0
2322 4 5 0 52.254124470077635 33.491595172126026 31.418579680862447 0 0 0
2891 5 12 0 47.95939255208084 31.836514819685696 32.723418056117026 -1 1 -1
2889 5 11 0 48.730757243972015 30.246408757576727 31.064189598548854 -1 1 -1
2900 5 14 0 49.51876670985118 29.54701584211723 31.68183150170168 -1 1 -1
2323 4 10 0 52.09698797605521 33.55360658719865 33.50092306407439 0 0 0
2320 4 4 0 52.82242235699344 33.82806470706398 32.31167052933262 0 0 0
2324 4 7 0 51.5377765281565 32.82887147206074 33.25381647322134 0 0 0
2895 5 13 0 49.01076980607468 31.740334756966334 32.949256101441286 -1 1 -1
2901 5 13 0 48.98014601396122 30.375596068194927 29.982795082766586 -1 1 -1
2903 5 13 0 49.608208770665414 33.70757725112994 31.249631918919654 -1 1 -1
2239 4 10 0 50.89299390812747 31.534269986479913 35.73354953828437 0 0 0
2240 4 7 0 51.52928833280176 32.24110899307905 35.633547745041774 0 0 0
2232 4 10 0 53.55093096315275 32.35323982697689 35.68354497041408 0 0 0
2238 4 5 0 51.95881007226788 29.788142697820824 36.13963407618014 0 0 0
1045 2 10 0 58.026652731445154 32.835632877515984 30.820553483627897 0 0 0
1036 2 1 0 58.923047409501606 30.283235369459327 34.22946132402429 0 0 0
1047 2 8 0 59.55035821557932 34.60778243593871 31.683987966630006 0 0 0
2326 4 3 0 54.195754520331036 33.14732996044302 32.43742993434097 0 0 0
2231 4 5 0 54.10271226881397 30.484253371534383 36.44705824577951 0 0 0
2233 4 7 0 52.59723665758493 32.29848165274399 35.565363799619476 0 0 0
1046 2 7 0 58.78265035985492 32.51172896177164 30.340527810512423 0 0 0
2325 4 8 0 54.516864150064606 33.15084434572894 33.46340621733426 0 0 0
2327 4 4 0 54.40968623560075 31.728460024241166 31.87050348883786 0 0 0
2328 4 1 0 54.94072805832573 33.799813545004774 31.953173904739465 0 0 0
1034 2 3 0 59.434361233121 29.711207517328102 33.42831627098212 0 0 0
1041 2 3 0 59.751783319653825 31.853997532700237 32.019584060632724 0 0 0
2331 4 7 0 56.00143531693833 30.847874342712725 31.758280565234877 0 0 0
2330 4 10 0 55.55973855314302 31.24198159700586 32.50567805523627 0 0 0
1035 2 4 0 59.30371826629491 30.37100131047542 32.06645766839782 0 0 0
1037 2 5 0 58.2052713809924 30.382776303778954 31.754639638412264 0 0 0
1042 2 4 0 58.51199411831976 32.794708546176174 32.13469761226806 0 0 0
1044 2 5 0 57.774434672474676 32.424046190230555 32.85601351492338 0 0 0
2949 9 17 0 59.54675106578824 29.44581910042156 29.865605931894414 1 1 0
2961 9 13 0 58.59706647721198 29.988297350326572 29.7604393302539 1 1 0
1048 2 3 0 58.94471908563041 34.19987322702795 32.557556373989925 0 0 0
2333 4 3 0 54.636099604580636 31.945188492554653 30.355146788923008 0 0 0
1051 2 5 0 56.94622103439775 34.34020537821882 33.39111627267511 0 0 0
2337 4 10 0 54.80568539495786 29.543206609333016 29.804488671066558 0 0 0
1050 2 1 0 59.677748702011 34.060208780145516 33.38982475219992 0 0 0
2226 4 7 0 55.62255228777771 32.177860445415725 35.396871749524315 0 0 0
2225 4 10 0 56.45560973595255 31.837468581523773 35.654521469009765 0 0 0
1053 2 7 0 57.5977196349876 36.69250616392441 31.991989170181064 0 0 0
1049 2 4 0 57.7085774818464 35.02441145718991 33.03659175998335 0 0 0
2332 4 8 0 55.73887282815555 32.117133409095366 30.159349092519196 0 0 0
2931 7 13 0 32.44626055169504 36.608796248337356 33.843991647528014 2 3 3
2926 7 13 0 31.996206907591915 34.32151790574673 32.68032927771525 2 3 3
2925 7 13 0 33.27988463371999 35.00179597471934 31.89543150963967 2 3 3
2919 7 11 0 33.41418264625917 36.17390901227584 34.09414450533348 2 3 3
898 2 15 0 34.331384186021175 40.46440922433449 30.70513478727918 0 0 0
3049 15 13 0 32.81768990277848 38.78287410818163 31.484968084271028 0 0 0
3050 15 19 0 30.44466207097189 38.87827356436158 30.91520611034582 0 0 0
162 1 7 0 31.47187376784825 39.356759939483865 34.101873580228244 0 0 0
161 1 10 0 31.537408727785134 40.06946043878826 33.45698289982893 0 0 0
158 1 4 0 30.91808762026978 41.197639587834374 34.0642147240686 0 0 0
798 2 1 0 36.077439890739626 36.01373441299848 30.570804981374785 0 0 0
163 1 8 0 59.854621250510064 39.57567951177231 34.75743266490946 -1 0 0
2930 7 14 0 34.1677549197215 36.74795003779049 34.828294263743494 2 3 3
3045 15 13 0 32.297869332760925 38.553223921978564 59.069649495030575 0 0 -1
882 2 1 0 34.05413242897884 41.0209994119172 35.34339219434313 0 0 0
890 2 5 0 34.64719756884697 41.12266987848108 33.08633475595509 0 0 0
888 2 4 0 35.7406302812335 41.110724595278604 33.04401593432394 0 0 0
3044 15 12 0 33.45719266786906 38.234790548590304 30.691092566379243 0 0 0
3040 15 12 0 31.433964310782052 36.87022809889901 30.046880471853928 0 0 0
3043 15 13 0 31.795081348403002 36.50173989680746 31.073156083323628 0 0 0
3041 15 12 0 32.56393318636694 37.728652146069614 59.692604372873674 0 0 -1
892 2 7 0 36.605301327012924 39.56024329382496 32.31156113827545 0 0 0
891 2 10 0 36.14519997020748 39.735894853752924 33.1357139886853 0 0 0
791 2 1 0 36.31120353323233 35.99627294960531 32.87746100946011 0 0 0
796 2 3 0 36.83482385297708 35.26672493641432 30.495617554208806 0 0 0
790 2 4 0 37.9552181272273 35.56309871876185 31.48895381465483 0 0 0
785 2 5 0 39.119840963729665 35.406011544717266 33.94408367769149 0 0 0
783 2 4 0 38.05160750255841 35.4568758287584 34.0130891099588 0 0 0
793 2 10 0 38.79151363222135 36.5461295879775 30.821195861059767 0 0 0
794 2 7 0 39.21736930164178 36.09587835991331 30.097073910956333 0 0 0
789 2 3 0 37.39154237017173 36.148097877674815 32.79099978255097 0 0 0
788 2 8 0 37.536502863436546 37.223542346055666 32.923602852127225 0 0 0
2676 4 3 0 41.48781927943396 39.57844224617549 33.70062394678746 0 0 0
2675 4 8 0 41.60308149693577 38.61411034597957 33.20376311668792 0 0 0
2670 4 4 0 40.90245860533356 39.50365791748525 35.09673348792509 0 0 0
786 2 10 0 37.672612537124046 36.28360126256921 35.10755269067555 0 0 0
2674 4 7 0 39.37294990102973 38.72618673587226 34.08076790765963 0 0 0
2673 4 10 0 39.52466558438709 39.11746159694389 34.99468055001425 0 0 0
2679 4 5 0 39.63505886265719 40.13947171023399 32.79445515532394 0 0 0
2677 4 4 0 40.67021591763041 40.49757423268977 32.80752869607605 0 0 0
2672 4 5 0 40.938629947675246 40.478453561044034 35.62343138967016 0 0 0
2269 4 8 0 41.539992907603626 35.46852798865204 34.62458924364554 0 0 0
2280 4 5 0 42.02858391207499 36.43534741802548 31.739186814636042 0 0 0
893 2 8 0 37.22887914733643 41.10417011405774 31.630697595616056 0 0 0
2668 4 8 0 41.392991092557 37.550183443425944 35.39538115934702 0 0 0
2682 4 8 0 40.76274654035234 39.43337733937997 31.16170199742423 0 0 0
2683 4 3 0 41.10651673405069 40.459064994577695 31.361644494854055 0 0 0
787 2 7 0 38.34855105331329 36.92864907195746 35.24426720794265 0 0 0
2278 4 4 0 42.2917869213924 35.41290345691854 31.400584045164834 0 0 0
2279 4 1 0 44.35036376700852 34.727613799508234 31.72209507178129 0 0 0
2678 4 1 0 42.60165484211228 39.88479677216549 33.88981372412317 0 0 0
2273 4 5 0 44.47013463624347 34.93673050094303 33.92310222630732 0 0 0
2271 4 4 0 43.476894753210615 35.25676024231406 33.60969470130609 0 0 0
2274 4 15 0 43.52828620322418 36.67603416914037 33.594043693452626 0 0 0
2978 10 13 0 45.420230929405975 36.4226230297452 32.72111527366558 0 0 0
2972 10 16 0 44.89678832167768 37.14709938763427 33.37915532915421 0 0 0
2977 10 19 0 44.7709700324153 38.338054884269425 32.694702555870805 0 0 0
2275 4 18 0 43.918396066079396 38.33716583045565 32.23551832457512 0 0 0
2969 10 12 0 45.546575818452986 37.50229117812288 34.67030345707076 0 0 0
2973 10 13 0 45.41333760736176 38.493603973189416 35.03475647250692 0 0 0
2966 10 12 0 47.041045108100924 37.20877193776499 34.47280473151575 0 0 0
2970 10 13 0 47.202865561384215 36.38945800696611 33.75078745019024 0 0 0
2287 4 5 0 44.125636315569494 36.98314504270934 30.63756396375591 0 0 0
2971 10 13 0 47.53902225474208 38.08036634063747 33.99882449339473 0 0 0
2974 10 13 0 45.098215913808296 36.94294939900652 35.47570402410503 0 0 0
2304 4 8 0 48.04586478221809 37.8308618078492 31.454017368271238 0 0 0
2297 4 8 0 46.28480648396393 37.83282897331531 30.350900680872687 0 0 0
2284 4 3 0 42.83764790303133 35.424603258300905 30.021101113734105 0 0 0
470 1 18 0 49.39287996261612 34.589190109664365 36.042766750441636 0 0 0
2309 4 15 0 48.29503149853354 35.26115032479529 31.503460833870243 0 0 0
446 1 1 0 48.617933717477186 40.16837060907118 33.103236537649636 0 0 0
2315 4 5 0 51.59910916149187 35.26058880652868 30.443030105750584 0 0 0
2319 4 3 0 52.828016434300466 35.35955185589794 32.18064367331175 0 0 0
2311 4 8 0 50.39850937601889 35.545566881619514 32.660378877148474 0 0 0
2318 4 8 0 52.6141147001092 35.712193148100134 33.15690240316963 0 0 0
2305 4 3 0 48.75721297774034 37.474266693391264 30.582350179437572 0 0 0
2307 4 1 0 49.541426976348994 38.155207396854856 30.665634545724416 0 0 0
2976 10 13 0 49.72357979459609 36.744263657540344 34.595146450963725 0 0 0
2312 4 3 0 50.472056758296176 36.226038107328314 31.763535286989544 0 0 0
2313 4 4 0 51.79293043113889 36.00167180431393 31.16682532443351 0 0 0
2314 4 1 0 50.38859743761046 37.252052774153746 32.18263889699713 0 0 0
461 1 5 0 51.646489171404525 38.20458316406278 34.205165259095885 0 0 0
2306 4 4 0 49.29919185346873 36.070638450219306 30.868134540276326 0 0 0
2316 4 15 0 52.40044178051723 37.21298982277382 30.578763855966457 0 0 0
443 1 8 0 49.863205129728655 40.86231771596541 31.82471431951466 0 0 0
2321 4 1 0 53.8341632327097 35.710282487799304 31.977872779664185 0 0 0
462 1 10 0 53.70376831150074 38.11616509156252 34.796723001641965 0 0 0
463 1 7 0 54.151022388269965 38.869005576877626 34.34373269967808 0 0 0
460 1 1 0 52.96262384838802 40.29424703407615 34.418051423813374 0 0 0
2308 4 5 0 49.60396961909119 35.53904237216115 29.966266443545972 0 0 0
459 1 4 0 52.34987892146458 38.45016866081899 35.07095221890809 0 0 0
468 1 5 0 51.6167550533656 36.16292620581441 35.29091152417536 0 0 0
458 1 3 0 52.26311463967019 39.99578090251262 35.20704770158499 0 0 0
454 1 5 0 50.17570341774231 39.82032335137027 34.9964244251345 0 0 0
2989 11 13 0 53.59896912750216 40.93906544058043 58.67985040546623 4 4 0
164 1 3 0 60.01155530345207 40.67138390812501 35.00532434225048 -1 0 0
2373 4 18 0 31.380950334937808 38.85852541670887 31.183461518165434 1 0 0
1052 2 10 0 57.313883028424016 35.78800534714815 31.919648766201984 0 0 0
2386 4 10 0 54.863696495698875 39.80054807022509 32.100064506552215 0 0 0
1060 2 7 0 55.98489233131792 35.58161702029349 33.70687954779839 0 0 0
1054 2 8 0 58.13484004604233 37.049295404728056 33.486887668032836 0 0 0
1055 2 3 0 58.057870200515374 36.102862364187686 34.031852691474896 0 0 0
1059 2 10 0 55.800602490912574 35.95845242755506 34.58345643426938 0 0 0
2376 4 4 0 56.83192786479711 40.15420930995019 30.17473301196494 0 0 0
2378 4 5 0 56.073346099425564 39.40373088574106 30.142011251850533 0 0 0
2371 4 5 0 57.87709501068565 38.0162503584926 30.483038129577228 0 0 0
1056 2 4 0 57.01481593169464 36.19105335676356 35.131437407522824 0 0 0
1057 2 1 0 59.07794582768642 35.93542080852261 34.54749746916854 0 0 0
2385 4 5 0 56.19071884802388 39.9640673580716 33.66144152031811 0 0 0
2387 4 7 0 54.08416935523552 40.034381857776296 32.623543337580806 0 0 0
2384 4 1 0 57.87626294543669 39.66812032637351 32.16967620199766 0 0 0
2382 4 3 0 57.1880689825376 40.453792463591185 31.666206381039494 0 0 0
2383 4 4 0 55.95298511948462 40.42646043161112 32.64393434917804 0 0 0
1058 2 5 0 57.247631183256615 35.341186647455515 35.76414914693102 0 0 0
166 1 1 0 59.07511500799137 41.22592769758195 34.802841197073604 -1 0 0
3039 15 16 0 30.113926995202817 37.6063839687556 30.370183358729783 0 0 0
2375 4 3 0 57.916840811890594 39.66848719423528 59.448780120099954 0 0 -1
2377 4 1 0 58.8558662115435 40.175245025730504 59.64281163484185 0 0 -1
3051 15 13 0 59.6685504343666 37.023267351481536 31.04490452945156 -1 0 0
2369 4 4 0 58.17058642670479 38.207364190770946 59.626111098486064 0 0 -1
160 1 5 0 31.596824067069626 41.693269348362314 34.727540053855044 0 0 0
155 1 7 0 31.39642195334445 41.90506179284495 30.7735851357479 0 0 0
157 1 3 0 30.40454203950208 42.07270306506024 32.95922925529554 0 0 0
153 1 5 0 32.50401823496495 42.6425436156232 32.76333044695202 0 0 0
154 1 10 0 31.55857410202629 42.82729456496946 30.979229437381058 0 0 0
884 2 15 0 34.6413900331937 43.422375495975814 33.95887022011086 0 0 0
150 1 3 0 31.389233915911955 44.462166434257156 32.833403145390655 0 0 0
151 1 4 0 31.51757634254549 42.980008692561114 32.43875963406984 0 0 0
144 1 4 0 32.36544281229477 44.965859731853115 33.93821394906549 0 0 0
2852 2 17 0 34.69042893857103 44.78449664387749 34.05452731814806 -4 -1 0
147 1 15 0 33.61596028552789 45.4062912876993 33.312167372307876 0 0 0
149 1 8 0 31.41527411693173 45.074774731398406 31.900720501159423 0 0 0
152 1 1 0 30.348868727433057 44.55751128726935 33.19085594566284 0 0 0
900 2 8 0 34.16672721454937 42.98977776315469 30.771038556558292 0 0 0
146 1 5 0 32.55660627430496 44.19996233656595 34.70233146903256 0 0 0
2858 2 13 0 34.50857903133163 45.01831530752408 35.10697880307456 -4 -1 0
143 1 3 0 31.745059683162854 46.18516778048178 34.621206785748036 0 0 0
880 2 3 0 34.43556857906507 41.901003431039335 35.793549361419046 0 0 0
881 2 4 0 35.35895087920887 42.694024326393034 34.98095429624134 0 0 0
2850 2 13 0 36.30499834479345 46.38944060533956 35.30135907935854 -4 -1 0
879 2 8 0 33.63332192368609 42.622289588613214 36.05046934976031 0 0 0
895 2 4 0 35.4484328992531 41.34783843586648 30.442008323219845 0 0 0
1382 2 7 0 31.668644757737948 46.17697374619411 30.60320800667419 0 -1 1
1381 2 10 0 32.01380043139817 45.92916297190855 29.742266444385958 0 -1 1
906 2 7 0 35.04428499168877 44.573318350830405 30.83795237150937 0 0 0
2854 2 13 0 35.80945476327306 45.54982934620368 32.35178318734321 -4 -1 0
2849 2 12 0 35.93578195416781 45.35721114283348 33.42252432170059 -4 -1 0
2846 2 12 0 36.37887345123956 46.5890653428112 34.22098800121708 -4 -1 0
883 2 5 0 36.015851896278484 43.328479402116464 35.60002138562021 0 0 0
145 1 1 0 32.45482673911825 46.53506194532191 35.42225191363834 0 0 0
142 1 8 0 30.856327748226658 45.8264030792059 35.10393173974198 0 0 0
901 2 3 0 34.80601403531719 42.609254147126954 29.949716047471583 0 0 0
905 2 10 0 35.60107989663873 44.861716177748576 30.104180367451118 0 0 0
1376 2 8 0 33.79286360025276 47.15689553635882 30.694277434504254 0 -1 1
886 2 8 0 36.91089494634998 41.13769641918174 34.858676213575926 0 0 0
2687 4 10 0 40.70685056299157 40.74907053709029 59.16098610468442 0 0 -1
2684 4 4 0 40.461266372987055 41.32930943501597 30.251378301014707 0 0 0
2685 4 1 0 42.22531333150326 40.452781685423595 31.270889931063866 0 0 0
2681 4 7 0 40.14071505536636 42.321488073672555 33.14628200276101 0 0 0
2680 4 10 0 40.82782786954764 41.75386426250971 33.469130521353364 0 0 0
894 2 3 0 36.26435818970359 41.63857993938878 31.649625707677767 0 0 0
887 2 3 0 36.37645755663562 41.779028516679595 34.232303609504605 0 0 0
896 2 1 0 36.51797375355452 42.69732976124427 31.68958110183087 0 0 0
889 2 1 0 37.13836071205726 42.42679881557494 33.824979899421194 0 0 0
2853 2 13 0 36.85926121956913 44.706679274059425 33.31777011942271 -4 -1 0
2700 4 5 0 38.47524191816285 45.44740980983632 31.06233654845836 0 0 0
1903 3 8 0 39.47859404158448 44.89748794103018 35.155677708498985 0 0 0
2851 2 13 0 37.404205106982275 46.75001216032438 33.91529888379575 -4 -1 0
2699 4 1 0 41.08786563102846 45.24762436651713 30.90940358472703 0 0 0
2697 4 3 0 40.36603360509942 45.18286929665985 30.070177581719815 0 0 0
2698 4 4 0 39.0676142865167 45.98764485216141 30.270327519764344 0 0 0
2686 4 5 0 39.35200660136641 41.44893315508098 30.514831989641394 0 0 0
1906 3 1 0 40.78945908690309 44.076472324640775 36.01313139229352 0 0 0
2692 4 1 0 41.60021828261448 43.041345505206024 31.156881674316104 0 0 0
428 1 7 0 42.61051975857246 43.94514616842855 32.25342383371468 0 0 0
439 1 1 0 46.72739351114136 41.42082747535217 33.693212178264325 0 0 0
436 1 8 0 46.10078818967789 40.70341470553511 32.19920624440435 0 0 0
442 1 7 0 46.82757783682426 41.31241655238786 30.21225707196717 0 0 0
441 1 10 0 47.7548903028122 41.21140743453717 30.516128270133724 0 0 0
435 1 7 0 45.11218914992536 44.09720505186132 31.1624327626186 0 0 0
437 1 3 0 46.65106626299342 41.59537601598595 32.58247965598088 0 0 0
432 1 1 0 44.43766713096196 41.819736077346306 33.63622004062933 0 0 0
429 1 8 0 43.855581763361144 42.35149638381022 32.10404491759956 0 0 0
434 1 10 0 45.87932222093733 43.490924948406004 31.2057833881248 0 0 0
431 1 4 0 45.95170071386424 42.93416168124407 32.51155584107784 0 0 0
430 1 3 0 44.53073635089306 42.70123307940179 32.966890993690235 0 0 0
433 1 5 0 46.42530487331026 43.63025709711966 33.20350327891894 0 0 0
3082 17 19 0 44.479276069214215 45.66223096079017 30.587343488153575 0 0 0
426 1 5 0 44.66660328254913 44.772467688703166 33.5676355115805 0 0 0
424 1 4 0 43.943524410249736 43.929039705542934 33.72985489583402 0 0 0
427 1 10 0 42.749840157472555 44.3949827925141 33.08233132744738 0 0 0
423 1 3 0 43.63205555542382 43.8487159416575 35.204543274854316 0 0 0
425 1 1 0 43.52750155660951 42.810211776176345 35.57705799448944 0 0 0
420 1 10 0 45.990861128799466 44.36573720494882 35.52369567949316 0 0 0
383 1 1 0 47.38032644681513 46.06477927259783 32.99911621032802 0 0 0
422 1 8 0 42.61114638100908 44.26275844610922 35.321797929789334 0 0 0
438 1 4 0 47.90842510806105 41.79094546446011 31.855610405051323 0 0 0
381 1 3 0 48.19278203485041 46.67960253241148 33.32213840302145 0 0 0
421 1 7 0 46.66444867648795 44.60875550778825 36.173884257849316 0 0 0
2827 10 9 0 45.07577051161809 40.54072703036441 29.778200685153625 1 1 4
372 1 18 0 43.70610128054598 45.71400096502157 30.037464602206786 0 0 0
444 1 3 0 49.06450118890572 41.08049956977273 32.610578303956174 0 0 0
376 1 1 0 48.18196022486474 45.448423196605276 31.17886966372554 0 0 0
453 1 1 0 51.35983415421897 41.06010877621982 33.09971806643491 0 0 0
445 1 4 0 49.57026239606114 41.95080894827463 33.747149336327546 0 0 0
449 1 7 0 48.94033580009875 43.34744591079504 32.60269599450284 0 0 0
440 1 5 0 47.9400326549431 42.90003491734624 31.695753566441088 0 0 0
451 1 3 0 50.971517340819716 41.6201474118092 34.02179572976833 0 0 0
448 1 10 0 49.43873759723972 43.319720009803625 33.42523258964585 0 0 0
380 1 8 0 49.04403355080832 46.08369443110509 33.71977056275926 0 0 0
450 1 8 0 51.60676987078955 42.45441570241159 34.14222833483442 0 0 0
318 1 3 0 53.43151715720154 45.249782777129354 32.07175543868428 0 0 0
320 1 1 0 54.1022764755462 44.62374987533341 32.71642028095594 0 0 0
317 1 8 0 52.51524010585649 45.31482688379948 32.66433841976628 0 0 0
322 1 10 0 53.94207317046536 43.44111583069986 30.524923163299825 0 0 0
319 1 4 0 53.12527498546061 44.5754405997249 30.731221378108028 0 0 0
327 1 1 0 51.553364891931906 43.25346730795375 31.33739651008267 0 0 0
394 1 8 0 50.02678913996246 45.689703114659736 35.49947701113398 0 0 0
321 1 5 0 53.464594102227835 45.254240671469304 29.95722102244996 0 0 0
312 1 4 0 53.87284325914056 46.684985216662085 31.829808743489412 0 0 0
324 1 8 0 51.07215642262909 44.98540319113263 30.99861872589803 0 0 0
325 1 3 0 51.66762092326516 44.13163926052606 30.668464401063737 0 0 0
374 1 3 0 48.29374076260507 46.5363229968693 30.92227147193033 0 0 0
378 1 10 0 50.09394535385218 47.522173170555675 32.01846641299707 0 0 0
452 1 4 0 50.912742200099416 40.60998487190965 35.16435481445496 0 0 0
447 1 5 0 49.023455955947995 41.802765744575126 34.703862898265754 0 0 0
2993 11 13 0 51.03213580725938 41.620304172856365 29.670797750120702 4 4 1
373 1 8 0 49.21279170514855 46.573787914990845 30.29049845847009 0 0 0
2381 4 8 0 57.749945140732265 41.405133284397465 31.648465539637154 0 0 0
156 1 8 0 30.01537976537235 41.384911325138084 32.147171225661 0 0 0
2911 6 13 0 59.485344196682064 44.794007378947846 29.69416397272765 1 0 1
159 1 1 0 59.669991624508484 42.63036875964043 33.17390359355136 -1 0 0
323 1 7 0 53.38631866714593 42.77481028578995 30.085422137239984 0 0 0
313 1 1 0 54.967691781023966 46.81889540959041 33.70607370550634 0 0 0
314 1 5 0 54.70211016615211 46.769888466301786 31.121927253306428 0 0 0
2388 4 8 0 54.497093073921675 41.78333021732898 32.93664943145344 0 0 0
2391 4 1 0 55.93340195676139 42.568457175620296 32.381169843909305 0 0 0
2392 4 5 0 57.00685646081641 41.582584509243866 34.69160563161384 0 0 0
2389 4 3 0 55.56475851940658 41.828365033409995 33.127108917594036 0 0 0
2390 4 4 0 56.037404102782475 42.149194839989725 34.482747141827325 0 0 0
2396 4 3 0 56.40354230527403 43.59952786740331 34.403727832577694 0 0 0
2398 4 1 0 56.82637113385306 43.994310744979394 33.42637174839427 0 0 0
2400 4 10 0 58.59682724908929 43.53603279539963 35.32241795242249 0 0 0
2395 4 8 0 55.44023190453886 44.08480037714902 34.57595637049471 0 0 0
2402 4 8 0 56.94167167971143 45.946672387847954 34.776555796503494 0 0 0
2394 4 7 0 55.37182455225967 41.40190626752174 36.1269658054139 0 0 0
2393 4 10 0 55.01928177355333 41.93188176186222 35.42051454249263 0 0 0
2904 6 11 0 57.39394109323494 45.999190951835544 30.62662040034805 1 0 1
2908 6 13 0 56.52817803513719 44.0438704414866 30.13206600250679 1 0 1
2910 6 13 0 58.73139653765931 43.28110386934624 29.886755059210323 1 0 1
2906 6 12 0 58.58626996722482 44.19325165041737 59.5068740681571 1 0 0
2905 6 12 0 57.240756499285006 44.75879589276052 29.72146670878484 1 0 1
2915 6 14 0 57.00119520677721 46.02666468786657 31.802347534695087 1 0 1
2916 6 13 0 57.826851463572424 46.93711121233368 30.221287186345055 1 0 1
2379 4 10 0 56.2932898759708 41.23023037730895 59.73072710531795 0 0 -1
2380 4 7 0 55.93434176607812 40.917954048020285 58.856027515018766 0 0 -1
2907 6 13 0 56.75991872469531 45.08335113157477 59.025732762014215 1 0 0
139 1 5 0 32.35976885839908 47.63082834181664 33.02489987435921 0 0 0
137 1 4 0 31.53022242385991 47.407173758681154 33.77208820935648 0 0 0
140 1 10 0 30.317853372246883 47.298987886613155 33.095779860947175 0 0 0
1367 2 15 0 35.13960814226807 52.16390831407347 30.543666771743332 0 -1 1
1370 2 3 0 34.36887595181918 49.88899683135362 30.651830764608746 0 -1 1
1373 2 5 0 32.46940746675781 48.95429246613922 31.100024840741582 0 -1 1
1371 2 4 0 33.16465911766916 49.067524318925706 30.260750461014425 0 -1 1
3123 20 13 0 32.92053109322728 52.52500409631696 31.360576733654153 -3 -1 1
125 1 5 0 59.95828752299211 52.07003531477721 33.99288145524096 -1 0 0
1369 2 8 0 34.05588015460053 50.40221435114791 31.61571931459554 0 -1 1
1364 2 4 0 34.66054375067176 51.12734472758222 29.706850735862325 0 -1 1
1372 2 1 0 35.15269907357855 49.28245955295192 31.07866042324369 0 -1 1
2848 2 13 0 34.69225585693274 47.87296352916151 34.48034270136379 -4 -1 0