units			real
dimension		3
processors		* * *
boundary		p p p
atom_style		full
pair_style		lj/cut 10.0
bond_style		harmonic
angle_style 	harmonic
read_data		PVA4_equilibrated.data
Reading data file ...
  orthogonal box = (30.614546 29.037549 30.45605) to (59.769448 58.192451 59.610952)
  1 by 1 by 1 MPI processor grid
  reading atoms ...
  2808 atoms
  reading velocities ...
  2808 velocities
  scanning bonds ...
  3 = max bonds/atom
  scanning angles ...
  6 = max angles/atom
  reading bonds ...
  2804 bonds
  reading angles ...
  5200 angles
Finding 1-2 1-3 1-4 neighbors ...
  special bond factors lj:    0        0        0       
  special bond factors coul:  0        0        0       
     4 = max # of 1-2 neighbors
     7 = max # of 1-3 neighbors
    14 = max # of 1-4 neighbors
    18 = max # of special neighbors
  special bonds CPU = 0.004 seconds
  read_data CPU = 0.076 seconds
variable simname index ssc_not_linked
variable tmp equal "lx"
variable L0 equal ${tmp}
variable L0 equal 29.1549029064426
variable strain equal "(lx - v_L0)/v_L0"
variable p1 equal "v_strain"
variable p2 equal "-pxx/10000*1.01325"
variable p3 equal "-pyy/10000*1.01325"
variable p4 equal "-pzz/10000*1.01325"
variable p5 equal "lx"
variable p6 equal "ly"
variable p7 equal "lz"
variable p8 equal "temp"
fix		1 all npt temp 300 300 50 y 0 0 1000 z 0 0 1000 drag 2
fix		2 all deform 1 x erate 1e-5 units box remap x
fix        3 all ave/time 1 100 100 v_p2 v_p3
variable avg_stress equal f_3[1]
fix def1 all print 100 "${p1} ${p2} ${avg_stress}" file ${simname}.txt screen no
fix def1 all print 100 "${p1} ${p2} ${avg_stress}" file ssc_not_linked.txt screen no
thermo_style	custom step temp v_p2 v_avg_stress lx v_strain pxx
thermo          100
timestep	1
run		100000
Generated 36 of 36 mixed pair_coeff terms from geometric mixing rule
Last active /omp style is angle_style harmonic/omp
Neighbor list info ...
  update every 1 steps, delay 10 steps, check yes
  max neighbors/atom: 2000, page size: 100000
  master list distance cutoff = 12
  ghost atom cutoff = 12
  binsize = 6, bins = 5 5 5
  1 neighbor lists, perpetual/occasional/extra = 1 0 0
  (1) pair lj/cut/omp, perpetual
      attributes: half, newton on, omp
      pair build: half/bin/newton/omp
      stencil: half/bin/3d
      bin: standard
Per MPI rank memory allocation (min/avg/max) = 25.31 | 25.31 | 25.31 Mbytes
   Step          Temp           v_p2       v_avg_stress        Lx          v_strain         Pxx      
         0   306.92569     -0.032929718    0              29.154903     -1.2185647e-16  324.99104    
       100   301.12054     -0.0048570231  -0.072780143    29.184058      0.001          47.935091    
       200   302.80697      0.25783569     0.025512323    29.213213      0.002         -2544.6404    
       300   301.92054     -0.13791652     0.08315476     29.242368      0.003          1361.1302    
       400   301.40451      0.4446455     -0.0038890088   29.271523      0.004         -4388.3099    
       500   298.43135      0.31123828     0.085161778    29.300677      0.005         -3071.683     
       600   295.30543      0.24618465    -0.0053845982   29.329832      0.006         -2429.6536    
       700   303.08793     -0.056876253    0.084336481    29.358987      0.007          561.32497    
       800   298.46543      0.13689836     0.016837085    29.388142      0.008         -1351.0817    
       900   300.17234      0.083474179    0.10914826     29.417297      0.009         -823.8261     
      1000   298.35766      0.12876859    -0.051982741    29.446452      0.01          -1270.8471    
      1100   298.62317     -0.070371448   -0.0075890244   29.475607      0.011          694.51219    
      1200   305.47117     -0.44425921    -0.020908734    29.504762      0.012          4384.4975    
      1300   298.04125      0.043322313    0.021747823    29.533917      0.013         -427.55799    
      1400   299.04126     -0.13605649     0.020148859    29.563072      0.014          1342.7731    
      1500   300.90787     -0.031331202   -0.0095214796   29.592226      0.015          309.21492    
      1600   304.32826      0.036446841   -0.011555367    29.621381      0.016         -359.70236    
      1700   300.15361     -0.077763163    0.066337642    29.650536      0.017          767.46275    
      1800   303.61719      0.24382744     0.020701949    29.679691      0.018         -2406.3898    
      1900   299.55757     -0.42984254    -0.0037925855   29.708846      0.019          4242.216     
      2000   298.85576      0.12372586     0.13059306     29.738001      0.02          -1221.0793    
      2100   302.49758     -0.0015317644   0.15240196     29.767156      0.021          15.117339    
      2200   297.08594      0.05621368    -0.065709944    29.796311      0.022         -554.78589    
      2300   305.59404      0.18720697     0.074363289    29.825466      0.023         -1847.5892    
      2400   296.78508      0.24934557     0.10004079     29.854621      0.024         -2460.8494    
      2500   302.11052      0.30010762    -0.023841265    29.883775      0.025         -2961.8319    
      2600   297.47695      0.38730037     0.12040641     29.91293       0.026         -3822.3574    
      2700   301.29292      0.21875012     0.090819776    29.942085      0.027         -2158.8958    
      2800   300.62707      0.48943264     0.081020203    29.97124       0.028         -4830.3246    
      2900   296.16366      0.23003549     0.024632753    30.000395      0.029         -2270.2738    
      3000   298.43069     -0.012832791   -0.0015512533   30.02955       0.03           126.6498     
      3100   296.7611      -0.24291324     0.12229119     30.058705      0.031          2397.3673    
      3200   303.27583     -0.34769723     0.049779853    30.08786       0.032          3431.5048    
      3300   304.76095     -0.20255234    -0.027537461    30.117015      0.033          1999.0362    
      3400   298.05028     -0.19617178     0.098327108    30.14617       0.034          1936.0649    
      3500   299.59711     -0.38996621     0.027632428    30.175325      0.035          3848.6673    
      3600   300.37666     -0.36216111     0.034742944    30.204479      0.036          3574.2523    
      3700   302.59209     -0.048377454    0.068571629    30.233634      0.037          477.44835    
      3800   299.7182       0.30287095     0.0313066      30.262789      0.038         -2989.1039    
      3900   301.34595      0.35293665     0.15790851     30.291944      0.039         -3483.2139    
      4000   300.73404      0.41772217     0.061561238    30.321099      0.04          -4122.5973    
      4100   300.64805      0.32407021     0.10468616     30.350254      0.041         -3198.3243    
      4200   303.32614      0.1093217      0.057560461    30.379409      0.042         -1078.9213    
      4300   305.55672      0.20869782     0.1178964      30.408564      0.043         -2059.6874    
      4400   301.13312      0.26936024     0.20889617     30.437719      0.044         -2658.3789    
      4500   299.38083     -0.16612014     0.02263221     30.466874      0.045          1639.4783    
      4600   300.9827       0.083792151    0.026843337    30.496028      0.046         -826.96423    
      4700   301.72163     -0.034428446    0.17301783     30.525183      0.047          339.78234    
      4800   303.35059      0.29871088     0.040612       30.554338      0.048         -2948.0471    
      4900   302.99021      0.19521299     0.078568357    30.583493      0.049         -1926.6024    
      5000   304.35614      0.2824136      0.063899342    30.612648      0.05          -2787.2056    
      5100   303.18637      0.15560914     0.12452504     30.641803      0.051         -1535.7428    
      5200   300.48854     -0.099712405    0.066242613    30.670958      0.052          984.08493    
      5300   298.48602      0.12101848     0.065124882    30.700113      0.053         -1194.3596    
      5400   300.98436      0.45250505     0.092772932    30.729268      0.054         -4465.8776    
      5500   296.36683      0.11246883     0.1540883      30.758423      0.055         -1109.981     
      5600   299.00811      0.011334207    0.11108034     30.787577      0.056         -111.85993    
      5700   299.42374      0.14095847     0.0051603747   30.816732      0.057         -1391.1519    
      5800   298.67325      0.12681081     0.061744047    30.845887      0.058         -1251.5254    
      5900   300.15619      0.079985798    0.07013571     30.875042      0.059         -789.39845    
      6000   295.07791     -0.067991669    0.090368266    30.904197      0.06           671.0256     
      6100   298.39927      0.015414124    0.17287844     30.933352      0.061         -152.12557    
      6200   298.79142      0.30179372     0.054605558    30.962507      0.062         -2978.4724    
      6300   301.92002      0.37597519     0.15554736     30.991662      0.063         -3710.5866    
      6400   291.95147      0.0094433406   0.027240318    31.020817      0.064         -93.198526    
      6500   301.67243     -0.22937352     0.14449856     31.049972      0.065          2263.7407    
      6600   296.62428      0.079565766    0.21483995     31.079126      0.066         -785.25305    
      6700   304.8375      -0.011879673    0.19050252     31.108281      0.067          117.24326    
      6800   300.34981      0.1917244      0.18849379     31.137436      0.068         -1892.1727    
      6900   298.75145     -0.034055706    0.055171501    31.166591      0.069          336.10369    
      7000   303.27094      0.076843867    0.0028920144   31.195746      0.07          -758.39       
      7100   302.47216     -0.037497711    0.0503812      31.224901      0.071          370.07363    
      7200   299.43008     -0.20287606     0.094609185    31.254056      0.072          2002.231     
      7300   295.14788     -0.13859063     0.042328995    31.283211      0.073          1367.7832    
      7400   306.89873      0.14829788     0.15323168     31.312366      0.074         -1463.5863    
      7500   297.90109      0.31371158     0.11408047     31.341521      0.075         -3096.0926    
      7600   300.66231      0.046189327    0.031081587    31.370676      0.076         -455.85322    
      7700   304.20487      0.13965718     0.039316375    31.39983       0.077         -1378.3093    
      7800   303.34691     -0.043872314   -0.0038910238   31.428985      0.078          432.98607    
      7900   290.08153      0.30114176     0.087390366    31.45814       0.079         -2972.038     
      8000   303.20377      0.44873736     0.15781318     31.487295      0.08          -4428.6934    
      8100   300.41229      0.48351341     0.18400046     31.51645       0.081         -4771.9063    
      8200   298.85549      0.0081443078   0.10939515     31.545605      0.082         -80.378068    
      8300   303.05772      0.10160264     0.17701865     31.57476       0.083         -1002.7401    
      8400   297.64157      0.19646543     0.15156579     31.603915      0.084         -1938.963     
      8500   301.90322      0.044624835    0.16180441     31.63307       0.085         -440.41288    
      8600   296.67294     -0.0064599922   0.17831408     31.662225      0.086          63.755166    
      8700   300.07129      0.39010839     0.071884928    31.691379      0.087         -3850.0704    
      8800   300.98169      0.28420513     0.18886122     31.720534      0.088         -2804.8865    
      8900   305.09518      0.32680778     0.12302171     31.749689      0.089         -3225.342     
      9000   296.33532      0.34282536     0.16613301     31.778844      0.09          -3383.4232    
      9100   296.77294      0.007510479    0.17953453     31.807999      0.091         -74.122665    
      9200   306.70067     -0.085019081    0.10464552     31.837154      0.092          839.07309    
      9300   298.66608      0.081830825    0.051890553    31.866309      0.093         -807.60745    
      9400   298.82364      0.19924604     0.13245201     31.895464      0.094         -1966.4055    
      9500   299.91244      0.13248538     0.14723352     31.924619      0.095         -1307.529     
      9600   303.07812      0.21494381     0.15065433     31.953774      0.096         -2121.3304    
      9700   302.6899       0.24225554     0.12598183     31.982928      0.097         -2390.8763    
      9800   298.90569      0.084582658    0.031413938    32.012083      0.098         -834.76593    
      9900   303.22113      0.0472354      0.11987015     32.041238      0.099         -466.17715    
     10000   306.36793      0.11433171     0.10677932     32.070393      0.1           -1128.3662    
     10100   296.5513       0.26386994     0.18957889     32.099548      0.101         -2604.1939    
     10200   299.4598       0.29872177     0.14821204     32.128703      0.102         -2948.1547    
     10300   296.87308     -0.27413487     0.22704056     32.157858      0.103          2705.5008    
     10400   297.91869     -0.15123399     0.12891525     32.187013      0.104          1492.5634    
     10500   300.69544      0.034207402    0.10942613     32.216168      0.105         -337.60081    
     10600   303.21142      0.38229434     0.17065721     32.245323      0.106         -3772.9518    
     10700   299.66689     -0.033342894    0.17457956     32.274478      0.107          329.06878    
     10800   294.33576      0.12497474     0.040148917    32.303632      0.108         -1233.4048    
     10900   296.97684      0.24169908     0.21550191     32.332787      0.109         -2385.3845    
     11000   297.6995       0.18102087     0.2320244      32.361942      0.11          -1786.5371    
     11100   300.09567     -0.16177546     0.056477231    32.391097      0.111          1596.5996    
     11200   301.76143     -0.20364917     0.19474614     32.420252      0.112          2009.861     
     11300   302.77755     -0.041526101    0.16474683     32.449407      0.113          409.83075    
     11400   298.74515     -0.0055305013  -0.02693751     32.478562      0.114          54.581804    
     11500   294.82088      0.11316561     0.15615101     32.507717      0.115         -1116.8577    
     11600   300.44257      0.48872487     0.20211777     32.536872      0.116         -4823.3395    
     11700   296.91836      0.17676367     0.14059848     32.566027      0.117         -1744.5218    
     11800   299.38319     -0.020326432    0.022272763    32.595181      0.118          200.60628    
     11900   300.8026      -0.056191776    0.13649902     32.624336      0.119          554.56971    
     12000   296.43136      0.15901864     0.254979       32.653491      0.12          -1569.392     
     12100   300.04538      0.19947342     0.044312905    32.682646      0.121         -1968.6495    
     12200   299.31251      0.25504729     0.23282201     32.711801      0.122         -2517.121     
     12300   298.07692      0.11530911     0.19693705     32.740956      0.123         -1138.0125    
     12400   300.15792      0.037856843    0.20755924     32.770111      0.124         -373.61799    
     12500   297.3885       0.062015932    0.11409047     32.799266      0.125         -612.04966    
     12600   298.19572      0.15000751     0.089394214    32.828421      0.126         -1480.459     
     12700   302.50896      0.25363234     0.13218204     32.857576      0.127         -2503.1566    
     12800   303.28582     -0.094542693    0.15732732     32.88673       0.128          933.06383    
     12900   303.0424       0.24524854    -0.046078627    32.915885      0.129         -2420.4149    
     13000   292.88605      0.32116182     0.15626015     32.94504       0.13          -3169.6207    
     13100   299.86245     -0.20619147     0.030835402    32.974195      0.131          2034.9515    
     13200   304.23478     -0.14047213     0.053773364    33.00335       0.132          1386.3521    
     13300   301.55609     -0.10857939     0.069070934    33.032505      0.133          1071.5953    
     13400   299.38574     -0.053601995    0.12083474     33.06166       0.134          529.01056    
     13500   300.72771     -0.066478672    0.13890613     33.090815      0.135          656.09348    
     13600   293.05773     -0.14045772    -0.039097281    33.11997       0.136          1386.2099    
     13700   295.89262      0.111655       0.058048771    33.149125      0.137         -1101.9491    
     13800   293.85189      0.37028216     0.071893962    33.17828       0.138         -3654.4008    
     13900   303.36306     -0.05924196     0.031786201    33.207434      0.139          584.67268    
     14000   298.80219      0.13499652     0.044361772    33.236589      0.14          -1332.312     
     14100   301.40166      0.0079933429   0.19127864     33.265744      0.141         -78.888161    
     14200   298.49039      0.19524174     0.071188833    33.294899      0.142         -1926.8862    
     14300   305.82424      0.4868442      0.16662465     33.324054      0.143         -4804.7787    
     14400   302.0165       0.23819386     0.14445869     33.353209      0.144         -2350.7906    
     14500   301.39833      0.060609571    0.080545188    33.382364      0.145         -598.16996    
     14600   298.31989     -0.19063253     0.092341929    33.411519      0.146          1881.3968    
     14700   298.69711      0.069295694    0.055387008    33.440674      0.147         -683.89532    
     14800   300.25812      0.19773894     0.19715814     33.469829      0.148         -1951.5316    
     14900   301.37578     -0.04308382     0.1566987      33.498983      0.149          425.20425    
     15000   301.70377      0.30156591     0.10189926     33.528138      0.15          -2976.2241    
     15100   304.4245       0.091889108    0.12912361     33.557293      0.151         -906.87499    
     15200   306.44859     -0.17853323     0.19895718     33.586448      0.152          1761.986     
     15300   297.00163     -0.32467129     0.017944157    33.615603      0.153          3204.2565    
     15400   295.40686      0.27084562     0.068506198    33.644758      0.154         -2673.0384    
     15500   305.92085     -0.0063896158   0.18314013     33.673913      0.155          63.060605    
     15600   301.21285      0.41726869     0.066733831    33.703068      0.156         -4118.1218    
     15700   302.63849      0.32387827     0.20326234     33.732223      0.157         -3196.43      
     15800   295.21682      0.083601058    0.1764434      33.761378      0.158         -825.07829    
     15900   300.19945      0.58713856     0.17746201     33.790532      0.159         -5794.6071    
     16000   300.76783     -0.047988166    0.098624672    33.819687      0.16           473.60638    
     16100   298.25245      0.040767249    0.089836889    33.848842      0.161         -402.34147    
     16200   301.19068     -0.0066440952   0.084065555    33.877997      0.162          65.572122    
     16300   301.3813       0.00045570391  0.080479634    33.907152      0.163         -4.4974479    
     16400   299.88577      0.1455839      0.1304069      33.936307      0.164         -1436.8013    
     16500   304.13917     -0.15069321     0.15949201     33.965462      0.165          1487.2263    
     16600   301.90205     -0.072065372    0.00027940123  33.994617      0.166          711.22992    
     16700   303.75859      0.089224126    0.13830438     34.023772      0.167         -880.57366    
     16800   294.48099     -0.035341935    0.10954344     34.052927      0.168          348.79778    
     16900   305.59105     -0.054371445    8.9226987e-05  34.082081      0.169          536.60444    
     17000   300.02385      0.33250868     0.22508354     34.111236      0.17          -3281.6056    
     17100   301.58469     -0.012488282    0.14774812     34.140391      0.171          123.24976    
     17200   300.8846       0.11516748     0.044252837    34.169546      0.172         -1136.6147    
     17300   297.12284      0.24203367     0.17335786     34.198701      0.173         -2388.6866    
     17400   302.14773     -0.037545019    0.033111012    34.227856      0.174          370.54053    
     17500   299.3126      -0.002147049    0.072152561    34.257011      0.175          21.189726    
     17600   294.36688      0.13956864     0.061812022    34.286166      0.176         -1377.4354    
     17700   302.36921      0.27170726     0.056628861    34.315321      0.177         -2681.5422    
     17800   302.02547     -0.070385674    0.1315755      34.344476      0.178          694.6526     
     17900   298.76147      0.21741693     0.015233421    34.373631      0.179         -2145.7383    
     18000   299.06959      0.083575457    0.082309743    34.402785      0.18          -824.82563    
     18100   298.07514      0.11250359     0.22943706     34.43194       0.181         -1110.3241    
     18200   303.78006      0.43620361     0.11971302     34.461095      0.182         -4304.9949    
     18300   301.24157      0.028819055   -0.0012618295   34.49025       0.183         -284.42196    
     18400   300.81413     -0.094067072   -0.0059147959   34.519405      0.184          928.36982    
     18500   298.85572      0.08127945     0.056225754    34.54856       0.185         -802.1658     
     18600   303.73245     -0.066534467    0.13030572     34.577715      0.186          656.64413    
     18700   298.28738      0.022020844   -0.0055810778   34.60687       0.187         -217.32884    
     18800   304.68417     -0.016948957    0.047309706    34.636025      0.188          167.2732     
     18900   296.69181      0.22130428     0.043404033    34.66518       0.189         -2184.1034    
     19000   301.83242     -0.11602133     0.13410842     34.694334      0.19           1145.0415    
     19100   306.0843       0.072873681    0.11472241     34.723489      0.191         -719.20731    
     19200   301.57475      0.11127214     0.092190781    34.752644      0.192         -1098.1707    
     19300   303.07519      0.044382053    0.15746075     34.781799      0.193         -438.0168     
     19400   295.99859     -0.028865034    0.12490676     34.810954      0.194          284.87573    
     19500   297.55927     -0.080079246    0.0038703107   34.840109      0.195          790.32071    
     19600   298.32956     -0.031686826    0.13297118     34.869264      0.196          312.72466    
     19700   301.43657      0.041081848    0.060042259    34.898419      0.197         -405.44632    
     19800   300.52058      0.26824476     0.05215843     34.927574      0.198         -2647.3699    
     19900   306.65516      0.16898684     0.29803642     34.956729      0.199         -1667.7704    
     20000   294.46013      0.0686429      0.0524764      34.985883      0.2           -677.45275    
     20100   298.04112      0.19647039     0.012193758    35.015038      0.201         -1939.012     
     20200   303.9345       0.18290853     0.15277549     35.044193      0.202         -1805.1668    
     20300   299.03406      0.053337438    0.035373331    35.073348      0.203         -526.39959    
     20400   298.73475     -0.08103784    -0.080527511    35.102503      0.204          799.7813     
     20500   301.56144     -0.21347837     0.15262315     35.131658      0.205          2106.8677    
     20600   300.62326     -0.38106274    -0.041982667    35.160813      0.206          3760.7969    
     20700   302.676        0.17921568     0.14825846     35.189968      0.207         -1768.7212    
     20800   302.53213      0.17956901     0.15254038     35.219123      0.208         -1772.2084    
     20900   299.28797     -0.29752225    -0.0035115923   35.248278      0.209          2936.3163    
     21000   299.17464     -0.07504624     0.17155703     35.277433      0.21           740.64881    
     21100   295.98497      0.15627557    -0.02298303     35.306587      0.211         -1542.32      
     21200   304.86445      0.34793165     0.18199712     35.335742      0.212         -3433.8184    
     21300   299.25395      0.051928659    0.20457291     35.364897      0.213         -512.49602    
     21400   303.89642     -9.4322514e-06  0.068155587    35.394052      0.214          0.093089083  
     21500   292.91401      0.35372562     0.053638028    35.423207      0.215         -3491.0005    
     21600   302.86848      0.097902563    0.14419574     35.452362      0.216         -966.22317    
     21700   301.79279      0.20877402     0.15573771     35.481517      0.217         -2060.4394    
     21800   300.7586       0.25976776     0.15404822     35.510672      0.218         -2563.7084    
     21900   302.05737      0.019165067    0.12762095     35.539827      0.219         -189.1445     
     22000   297.1176       0.052545556    0.26140055     35.568982      0.22          -518.58432    
     22100   299.31021      0.05503748     0.12456301     35.598136      0.221         -543.17769    
     22200   300.87615      0.22024928     0.20856671     35.627291      0.222         -2173.6914    
     22300   302.68718      0.29445747     0.09177168     35.656446      0.223         -2906.0693    
     22400   298.74935      0.30204565     0.086922615    35.685601      0.224         -2980.9588    
     22500   300.35465      0.20503018     0.11502841     35.714756      0.225         -2023.4905    
     22600   293.71839      0.029922468    0.068823407    35.743911      0.226         -295.3118     
     22700   295.21126      0.1869513      0.17183112     35.773066      0.227         -1845.0659    
     22800   298.3241      -0.23298721     0.056565243    35.802221      0.228          2299.405     
     22900   299.68183     -0.075237199   -0.0057482653   35.831376      0.229          742.53342    
     23000   296.18522      0.11956048     0.11920687     35.860531      0.23          -1179.9702    
     23100   297.34091      0.19065961     0.068756312    35.889685      0.231         -1881.664     
     23200   296.28523      0.27217821     0.12367695     35.91884       0.232         -2686.1901    
     23300   296.96034     -0.10860895     0.068754106    35.947995      0.233          1071.887     
     23400   300.60517      0.072931021    0.074969332    35.97715       0.234         -719.77322    
     23500   302.73993      0.28887707     0.19445904     36.006305      0.235         -2850.995     
     23600   297.68839     -0.22060017     0.022981354    36.03546       0.236          2177.1544    
     23700   304.38602      0.058668176    0.13582848     36.064615      0.237         -579.00988    
     23800   299.40447      0.38644667     0.18152591     36.09377       0.238         -3813.9321    
     23900   298.12917      0.13663365     0.035297377    36.122925      0.239         -1348.4693    
     24000   296.85731      0.073412786    0.12585683     36.15208       0.24          -724.52786    
     24100   300.87573      0.074063203   -0.0060198527   36.181235      0.241         -730.94698    
     24200   303.24083      0.19937122     0.12440278     36.210389      0.242         -1967.6409    
     24300   302.66876     -0.072126786    0.093520718    36.239544      0.243          711.83603    
     24400   297.11968     -0.20645737    -0.030273431    36.268699      0.244          2037.5759    
     24500   305.03502     -0.084104572    0.20148334     36.297854      0.245          830.04759    
     24600   301.99654      0.2471374      0.13781155     36.327009      0.246         -2439.0565    
     24700   301.87548      0.3651721      0.070069949    36.356164      0.247         -3603.9684    
     24800   295.51207      0.28329987     0.17771856     36.385319      0.248         -2795.9523    
     24900   295.90442      0.59928295     0.12607976     36.414474      0.249         -5914.4629    
     25000   299.36908      0.45313816     0.10413435     36.443629      0.25          -4472.126     
     25100   296.62544      0.16929672     0.24878699     36.472784      0.251         -1670.8287    
     25200   300.83442     -0.1317859     -0.026204765    36.501938      0.252          1300.6257    
     25300   302.18185      0.0013825575   0.043266296    36.531093      0.253         -13.644781    
     25400   299.82232      0.030982329    0.19870829     36.560248      0.254         -305.77181    
     25500   299.69972      0.35146402     0.13431713     36.589403      0.255         -3468.6802    
     25600   308.08347     -0.06248061     0.092186579    36.618558      0.256          616.63568    
     25700   303.77048      0.2217632      0.12722067     36.647713      0.257         -2188.6326    
     25800   293.63936     -0.042612399    0.046469902    36.676868      0.258          420.55168    
     25900   303.01273     -0.015381103   -0.066782123    36.706023      0.259          151.79969    
     26000   301.64387      0.016220635    0.16623242     36.735178      0.26          -160.08523    
     26100   300.36694     -0.084264661    0.023522912    36.764333      0.261          831.62754    
     26200   300.60131     -0.095136563    0.10436066     36.793487      0.262          938.92487    
     26300   294.90905      0.15210838     0.20276287     36.822642      0.263         -1501.193     
     26400   301.41694     -0.049264942    0.14412696     36.851797      0.264          486.20717    
     26500   297.44715      0.05601892     0.017671439    36.880952      0.265         -552.86375    
     26600   300.65378      0.30583487     0.16340984     36.910107      0.266         -3018.3554    
     26700   299.55454      0.10644188     0.21743121     36.939262      0.267         -1050.4997    
     26800   301.03276      0.4716652      0.090683869    36.968417      0.268         -4654.9736    
     26900   298.67185      0.49160142     0.16525883     36.997572      0.269         -4851.7288    
     27000   300.4061       0.093369469    0.010956348    37.026727      0.27          -921.48501    
     27100   300.15384      0.29776658     0.1245535      37.055882      0.271         -2938.7277    
     27200   304.69446      0.11218035     0.053981103    37.085036      0.272         -1107.134     
     27300   301.62606      0.31079655     0.15820981     37.114191      0.273         -3067.3235    
     27400   300.60438      0.24730497     0.10949884     37.143346      0.274         -2440.7103    
     27500   299.51877      0.068729536    0.025325818    37.172501      0.275         -678.30778    
     27600   299.51119      0.066495835   -0.025211483    37.201656      0.276         -656.26287    
     27700   297.68455      0.094881494    0.060728242    37.230811      0.277         -936.40754    
     27800   295.07837      0.30004246     0.016021658    37.259966      0.278         -2961.1888    
     27900   301.07008      0.21310433     0.13921732     37.289121      0.279         -2103.1762    
     28000   303.38332      0.014214939    0.030749428    37.318276      0.28          -140.29054    
     28100   299.627       -0.021536518    0.03123983     37.347431      0.281          212.54891    
     28200   303.86096      0.15771089     0.13086513     37.376586      0.282         -1556.4855    
     28300   298.93504     -0.19799507     0.16701122     37.40574       0.283          1954.0595    
     28400   302.93687     -0.2801255      0.01216849     37.434895      0.284          2764.6237    
     28500   301.5831       0.28292093     0.18001313     37.46405       0.285         -2792.2124    
     28600   298.14832     -0.082868931    0.044174968    37.493205      0.286          817.85276    
     28700   304.71034      0.01709482     0.030657157    37.52236       0.287         -168.71276    
     28800   300.99347     -0.22039274     0.039390369    37.551515      0.288          2175.1072    
     28900   301.17634      0.035648321    0.07895947     37.58067       0.289         -351.82157    
     29000   299.07492      0.10474722     0.084988284    37.609825      0.29          -1033.7747    
     29100   300.32329      0.069068422    0.050542919    37.63898       0.291         -681.65233    
     29200   301.22404      0.24975462     0.10375765     37.668135      0.292         -2464.8865    
     29300   296.77734      0.12248676     0.18043271     37.697289      0.293         -1208.8504    
     29400   296.16638      0.11034615     0.16637564     37.726444      0.294         -1089.0318    
     29500   298.43245      0.22223702    -0.027653493    37.755599      0.295         -2193.3088    
     29600   302.92952      0.14467411     0.08595451     37.784754      0.296         -1427.8225    
     29700   293.37636      0.28957938     0.084952233    37.813909      0.297         -2857.9262    
     29800   302.62946      0.055540646    0.12435124     37.843064      0.298         -548.14356    
     29900   301.89186      0.045310036    0.035991376    37.872219      0.299         -447.17529    
     30000   300.93982     -0.069645888    0.20612268     37.901374      0.3            687.35147    
     30100   299.00105      0.035785306    0.15451406     37.930529      0.301         -353.17351    
     30200   301.50954     -0.066512565    0.087927391    37.959684      0.302          656.42798    
     30300   302.68948      0.14978213     0.013306822    37.988838      0.303         -1478.2347    
     30400   301.41442      0.28431056     0.062302026    38.017993      0.304         -2805.9271    
     30500   302.15167      0.24638496     0.036680043    38.047148      0.305         -2431.6305    
     30600   297.45657      0.23241658     0.061142991    38.076303      0.306         -2293.7733    
     30700   302.18446      0.2529878      0.17126877     38.105458      0.307         -2496.7955    
     30800   303.75174     -0.057482704   -0.093077714    38.134613      0.308          567.31018    
     30900   298.6031       0.17664799     0.019775617    38.163768      0.309         -1743.3801    
     31000   300.63104     -0.0052442544   0.068887073    38.192923      0.31           51.756767    
     31100   297.22812     -0.10167988     0.10022106     38.222078      0.311          1003.5024    
     31200   301.95618      0.21960023     0.07260813     38.251233      0.312         -2167.2858    
     31300   303.6716      -0.083870768    0.10897759     38.280388      0.313          827.74012    
     31400   296.20443      0.069619539    0.17244769     38.309542      0.314         -687.09142    
     31500   298.1618       0.2193239      0.10309612     38.338697      0.315         -2164.5586    
     31600   304.02361     -0.14192634     0.069920919    38.367852      0.316          1400.7041    
     31700   295.86841      0.28453581    -0.030608871    38.397007      0.317         -2808.1501    
     31800   297.48832      0.20002032     0.25676291     38.426162      0.318         -1974.0471    
     31900   303.24031     -0.051208787    0.12268139     38.455317      0.319          505.39143    
     32000   303.40215      0.072600753    0.023466194    38.484472      0.32          -716.51372    
     32100   302.51019      0.30926922     0.027185331    38.513627      0.321         -3052.2499    
     32200   301.84081      0.1812442      0.17346175     38.542782      0.322         -1788.7412    
     32300   305.48903     -0.15355074     0.0025409522   38.571937      0.323          1515.428     
     32400   304.34937      0.15618437     0.15304769     38.601091      0.324         -1541.4198    
     32500   300.20263      0.088123682    0.1109528      38.630246      0.325         -869.71312    
     32600   300.20992     -0.18215868     0.033409362    38.659401      0.326          1797.7664    
     32700   301.2373       0.23393727     0.086392006    38.688556      0.327         -2308.7813    
     32800   299.31487      0.011846385    0.062875554    38.717711      0.328         -116.91473    
     32900   300.16713      0.24741632     0.053736572    38.746866      0.329         -2441.8092    
     33000   306.4087       0.16135994     0.1661189      38.776021      0.33          -1592.4987    
     33100   300.9286       0.064385976    0.099090006    38.805176      0.331         -635.44018    
     33200   300.34405      0.056103454    0.051479654    38.834331      0.332         -553.69804    
     33300   298.69126      0.24339653     0.14602928     38.863486      0.333         -2402.137     
     33400   299.11818      0.44725325     0.090854089    38.89264       0.334         -4414.0463    
     33500   296.82489     -0.1616553      0.043880177    38.921795      0.335          1595.4138    
     33600   298.23484     -0.14598101     0.097287162    38.95095       0.336          1440.7206    
     33700   299.89632      0.07984664     0.12657122     38.980105      0.337         -788.02507    
     33800   304.12999     -0.21818552     0.10720516     39.00926       0.338          2153.3236    
     33900   297.17305     -0.12233613     0.17908955     39.038415      0.339          1207.3637    
     34000   304.00239     -0.04120629     0.12984023     39.06757       0.34           406.67447    
     34100   299.38346      0.13231084     0.027229107    39.096725      0.341         -1305.8065    
     34200   305.92255      0.20577223    -0.028056043    39.12588       0.342         -2030.814     
     34300   295.71512      0.014747367    0.077440096    39.155035      0.343         -145.5452     
     34400   303.19775      0.16444267    -0.03125282     39.18419       0.344         -1622.9229    
     34500   299.58387      0.14235069     0.14097026     39.213344      0.345         -1404.8921    
     34600   298.61413     -0.087397227    0.046028305    39.242499      0.346          862.54356    
     34700   295.15992      0.036548602    0.033839441    39.271654      0.347         -360.70666    
     34800   304.21904      0.21613192     0.05009966     39.300809      0.348         -2133.0562    
     34900   303.89442      0.28234628     0.061248009    39.329964      0.349         -2786.5412    
     35000   305.82996      0.1941527      0.11672555     39.359119      0.35          -1916.1381    
     35100   305.06741     -0.18383651     0.10533326     39.388274      0.351          1814.3253    
     35200   299.47056     -0.14184871     0.12052232     39.417429      0.352          1399.9379    
     35300   303.74209     -0.32808489     0.039463272    39.446584      0.353          3237.9462    
     35400   303.21928     -0.067609912    0.056201876    39.475739      0.354          667.25795    
     35500   301.9756       0.027400223    0.12608659     39.504893      0.355         -270.41918    
     35600   302.99889     -0.011517131    0.11563047     39.534048      0.356          113.66525    
     35700   296.80938      0.072409592    0.036807538    39.563203      0.357         -714.62711    
     35800   299.45425      0.22193299     0.024931251    39.592358      0.358         -2190.3083    
     35900   303.99417     -0.04134278     0.073485967    39.621513      0.359          408.02152    
     36000   296.3337       0.016366547    0.15607623     39.650668      0.36          -161.52526    
     36100   306.41228     -0.10856618     0.014176124    39.679823      0.361          1071.4649    
     36200   296.91287      0.14330926     0.029243331    39.708978      0.362         -1414.3525    
     36300   301.86529     -0.033234711    0.078312921    39.738133      0.363          328.00109    
     36400   301.11021      0.30912182     0.05730085     39.767288      0.364         -3050.7951    
     36500   296.68994     -0.055318327    0.11179561     39.796442      0.365          545.94944    
     36600   298.95351     -0.18571374     0.050278597    39.825597      0.366          1832.8521    
     36700   300.58352      0.076064502   -0.0033482408   39.854752      0.367         -750.69827    
     36800   299.96771     -0.037795579    0.065102109    39.883907      0.368          373.01336    
     36900   292.21207     -0.24411361     0.10740391     39.913062      0.369          2409.2141    
     37000   298.5538       0.12010324    -0.020243496    39.942217      0.37          -1185.3269    
     37100   301.00712     -0.16429659     0.16104199     39.971372      0.371          1621.4813    
     37200   304.55657     -0.043147821    0.054173077    40.000527      0.372          425.83589    
     37300   299.49454     -0.073999376    0.065667853    40.029682      0.373          730.31706    
     37400   295.16516     -0.14127704     0.075507187    40.058837      0.374          1394.2959    
     37500   301.52205      0.081417575    0.19530058     40.087991      0.375         -803.52899    
     37600   302.27663     -0.062606912    0.18315453     40.117146      0.376          617.88218    
     37700   305.36361      0.088352874    0.14536761     40.146301      0.377         -871.97507    
     37800   299.37727      0.25346755     0.16268183     40.175456      0.378         -2501.5303    
     37900   302.16427      0.032568519    0.11854554     40.204611      0.379         -321.4263     
     38000   296.26048      0.090182212    0.15962263     40.233766      0.38          -890.02923    
     38100   298.5189      -0.17205778     0.099774527    40.262921      0.381          1698.0783    
     38200   296.48752      0.052738224    0.0090169985   40.292076      0.382         -520.48581    
     38300   300.79336      0.080678643    0.13493369     40.321231      0.383         -796.2363     
     38400   303.05287      0.023946332    0.0015071658   40.350386      0.384         -236.33192    
     38500   301.41138      0.11672894     0.040504618    40.379541      0.385         -1152.0251    
     38600   298.99302      0.041835086    0.1797307      40.408695      0.386         -412.8802     
     38700   299.70309      0.23298837     0.069804923    40.43785       0.387         -2299.4164    
     38800   301.50144      0.24898733     0.21536014     40.467005      0.388         -2457.3139    
     38900   295.19058      0.016352062    0.14953395     40.49616       0.389         -161.3823     
     39000   303.37275      0.14680467     0.13529358     40.525315      0.39          -1448.8494    
     39100   300.65089      0.035656993    0.18110813     40.55447       0.391         -351.90716    
     39200   300.57417     -0.16958951    -0.02674625     40.583625      0.392          1673.7184    
     39300   297.89135     -0.079234259    0.021003169    40.61278       0.393          781.98134    
     39400   301.93338      0.32098309     0.055089182    40.641935      0.394         -3167.8568    
     39500   303.06149      0.11209807     0.086445538    40.67109       0.395         -1106.3219    
     39600   297.64647      0.23017977     0.12852446     40.700244      0.396         -2271.6977    
     39700   294.97088      0.03012387     0.078361565    40.729399      0.397         -297.29949    
     39800   300.64689      0.14289994     0.059207572    40.758554      0.398         -1410.3128    
     39900   295.29006      0.4207304      0.099057171    40.787709      0.399         -4152.2862    
     40000   301.39997      0.34977812     0.1859543      40.816864      0.4           -3452.0417    
     40100   303.77505     -0.05101639     0.13291721     40.846019      0.401          503.49263    
     40200   303.1456       0.1189646      0.16431624     40.875174      0.402         -1174.0893    
     40300   301.22227     -0.054204743    0.076257628    40.904329      0.403          534.95922    
     40400   307.54339     -0.15384859     0.12763263     40.933484      0.404          1518.3676    
     40500   302.91011     -0.23090126     0.16264033     40.962639      0.405          2278.8182    
     40600   303.13931     -0.15749308    -0.026188532    40.991793      0.406          1554.3359    
     40700   297.62561      0.0076208878   0.029135404    41.020948      0.407         -75.212315    
     40800   299.38913     -0.19267137     0.18557892     41.050103      0.408          1901.5186    
     40900   299.52253     -0.077470475    0.10983779     41.079258      0.409          764.57414    
     41000   300.20214      0.14243832     0.038111045    41.108413      0.41          -1405.7569    
     41100   296.80002      0.18503617     0.27203044     41.137568      0.411         -1826.1651    
     41200   301.63917      0.48584877     0.08996247     41.166723      0.412         -4794.9545    
     41300   303.62725      0.20738045     0.092580448    41.195878      0.413         -2046.6859    
     41400   294.86537      0.10478697     0.010315726    41.225033      0.414         -1034.167     
     41500   301.27773      0.29271695     0.17044492     41.254188      0.415         -2888.8916    
     41600   296.09667     -0.066825569    0.17073661     41.283343      0.416          659.51709    
     41700   295.24967      0.034646657    0.081737703    41.312497      0.417         -341.93592    
     41800   302.94068     -0.12842964     0.011028543    41.341652      0.418          1267.502     
     41900   299.82607     -0.085722855    0.14138554     41.370807      0.419          846.0188     
     42000   303.64342     -0.19614757     0.070267222    41.399962      0.42           1935.826     
     42100   297.89273     -0.13910171     0.065747085    41.429117      0.421          1372.8272    
     42200   302.04639     -0.13150681    -0.12803665     41.458272      0.422          1297.8713    
     42300   304.56531     -0.091927893    0.03066312     41.487427      0.423          907.25777    
     42400   304.03095      0.24693796     0.1472233      41.516582      0.424         -2437.0882    
     42500   297.31043     -0.068415021    0.14486666     41.545737      0.425          675.20376    
     42600   301.36444     -0.072029484    0.11349899     41.574892      0.426          710.87573    
     42700   298.74357      0.022192341    0.045526292    41.604046      0.427         -219.02137    
     42800   307.13929      0.24529073     0.16182626     41.633201      0.428         -2420.8313    
     42900   301.67062     -0.12421798     0.14864959     41.662356      0.429          1225.9361    
     43000   297.98452     -0.18561178    -0.062641807    41.691511      0.43           1831.8459    
     43100   304.70928      0.15769116     0.11648135     41.720666      0.431         -1556.2908    
     43200   299.12802      0.1388112      0.13108637     41.749821      0.432         -1369.96      
     43300   296.82819      0.24744044     0.10291566     41.778976      0.433         -2442.0473    
     43400   306.1535       0.381651       0.19823231     41.808131      0.434         -3766.6025    
     43500   298.60086     -0.10093874    -0.029828024    41.837286      0.435          996.18787    
     43600   297.61649      0.13738568    -0.034640144    41.866441      0.436         -1355.8912    
     43700   299.28244     -0.051787323   -0.03869129     41.895595      0.437          511.10114    
     43800   296.66942      0.18203949     0.10217031     41.92475       0.438         -1796.59      
     43900   304.56541      0.30008055     0.19418207     41.953905      0.439         -2961.5647    
     44000   299.60249     -0.30366782    -0.019318833    41.98306       0.44           2996.9684    
     44100   301.14805      0.23061948     0.12373274     42.012215      0.441         -2276.0373    
     44200   305.0504       0.14993658     0.20396609     42.04137       0.442         -1479.759     
     44300   298.32068      0.24662959     0.14774548     42.070525      0.443         -2434.0448    
     44400   304.76026      0.29604373     0.12374548     42.09968       0.444         -2921.7244    
     44500   301.99096     -0.26544872     0.11619075     42.128835      0.445          2619.7752    
     44600   303.29155      0.42224928     0.19316262     42.15799       0.446         -4167.2763    
     44700   300.63014     -0.22431158     0.083178545    42.187145      0.447          2213.7832    
     44800   304.84839     -0.090663363   -0.0031922261   42.216299      0.448          894.77782    
     44900   298.37999     -0.033854939    0.1327043      42.245454      0.449          334.12227    
     45000   296.9899       0.063661109   -0.0060829655   42.274609      0.45          -628.2863     
     45100   304.68541      0.24723398     0.1324044      42.303764      0.451         -2440.0096    
     45200   302.51397      0.21471785     0.12013707     42.332919      0.452         -2119.1004    
     45300   300.43027     -0.010572961   -0.020741077    42.362074      0.453          104.34701    
     45400   300.35604      0.19645367     0.1419495      42.391229      0.454         -1938.847     
     45500   299.71553      0.054033524   -0.036613932    42.420384      0.455         -533.26942    
     45600   298.08218     -0.014913027    0.10587621     42.449539      0.456          147.18013    
     45700   303.90695     -0.23676145     0.0038300263   42.478694      0.457          2336.6539    
     45800   306.31992     -0.20384778     0.10135082     42.507848      0.458          2011.8212    
     45900   293.89727     -0.19644288     0.045766963    42.537003      0.459          1938.7405    
     46000   299.90717      0.05625343     0.049698138    42.566158      0.46          -555.17819    
     46100   292.02391     -0.043105721   -0.017802725    42.595313      0.461          425.42039    
     46200   308.76519      0.060716031   -0.036686016    42.624468      0.462         -599.22064    
     46300   298.60348      0.090231112    0.043562112    42.653623      0.463         -890.51184    
     46400   304.35264      0.084304965   -0.0042045418   42.682778      0.464         -832.02531    
     46500   299.58478      0.27430117     0.094869444    42.711933      0.465         -2707.1421    
     46600   304.19307     -0.0086902233   0.00013208872  42.741088      0.466          85.765836    
     46700   305.77971      0.032385056    0.070726702    42.770243      0.467         -319.61566    
     46800   297.71241      0.36904765     0.16577197     42.799397      0.468         -3642.2171    
     46900   299.59752      0.31508409     0.21939802     42.828552      0.469         -3109.6382    
     47000   302.93051     -0.0036005499   0.013858213    42.857707      0.47           35.534665    
     47100   294.63375      0.22770483     0.17772848     42.886862      0.471         -2247.2719    
     47200   298.08705      0.12489436     0.18132651     42.916017      0.472         -1232.6115    
     47300   302.58416     -0.088182323    0.03681657     42.945172      0.473          870.29186    
     47400   306.7532       0.15718644     0.093561966    42.974327      0.474         -1551.3095    
     47500   304.42733      0.11773951     0.16507744     43.003482      0.475         -1161.9987    
     47600   298.33228      0.014008116    0.13561046     43.032637      0.476         -138.24936    
     47700   294.9773      -0.0067452935   0.044817352    43.061792      0.477          66.570871    
     47800   297.00511      0.11330811     0.13111152     43.090946      0.478         -1118.2641    
     47900   300.57538      0.047251184    0.098316656    43.120101      0.479         -466.33293    
     48000   298.29473     -0.096114769   -0.004062568    43.149256      0.48           948.57902    
     48100   302.80838      0.23369294     0.051449068    43.178411      0.481         -2306.37      
     48200   298.89392     -0.20648713     0.13332196     43.207566      0.482          2037.8696    
     48300   305.87903     -0.075018745    0.09624452     43.236721      0.483          740.37745    
     48400   298.39282     -0.10676021     0.12564979     43.265876      0.484          1053.6413    
     48500   299.88425     -0.076199288    0.16585317     43.295031      0.485          752.0285     
     48600   299.19933     -0.075866911    0.12727905     43.324186      0.486          748.74819    
     48700   302.79367      0.054867756    0.017833592    43.353341      0.487         -541.50265    
     48800   302.93125     -0.15450144    -0.02349791     43.382496      0.488          1524.8107    
     48900   298.98881      0.1406487      0.056867708    43.41165       0.489         -1388.0947    
     49000   298.16214      0.062858763    0.072562       43.440805      0.49          -620.36776    
     49100   298.83538      0.19532621     0.10616416     43.46996       0.491         -1927.7198    
     49200   294.78202      0.11894051     0.152625       43.499115      0.492         -1173.8516    
     49300   302.28164     -0.0058184741   0.18030832     43.52827       0.493          57.423874    
     49400   299.18493      0.40943399     0.20068955     43.557425      0.494         -4040.7993    
     49500   297.62248      0.19368721     0.22045766     43.58658       0.495         -1911.5442    
     49600   298.17262      0.0034024485   0.22426206     43.615735      0.496         -33.579556    
     49700   302.53137     -0.038178472    0.03962425     43.64489       0.497          376.79223    
     49800   297.36106      0.1612018      0.084922475    43.674045      0.498         -1590.938     
     49900   303.16158      0.10237314     0.11433033     43.703199      0.499         -1010.3443    
     50000   301.17421     -0.086066145    0.10988063     43.732354      0.5            849.40681    
     50100   295.10974     -0.10341725     0.062606005    43.761509      0.501          1020.6489    
     50200   300.17096      0.1024393      0.089304708    43.790664      0.502         -1010.9973    
     50300   304.30806      0.12973083     0.21614376     43.819819      0.503         -1280.3437    
     50400   299.74861      0.1838826      0.063146752    43.848974      0.504         -1814.7802    
     50500   305.26158      0.24420602     0.052564964    43.878129      0.505         -2410.126     
     50600   308.91369     -0.017434163    0.060820623    43.907284      0.506          172.06181    
     50700   304.51384     -0.24841624     0.042895631    43.936439      0.507          2451.6777    
     50800   301.12896      0.19170517    -0.0071847535   43.965594      0.508         -1891.9829    
     50900   302.30337      0.28018867     0.20839599     43.994748      0.509         -2765.2472    
     51000   297.32196     -0.10025315     0.018766028    44.023903      0.51           989.42169    
     51100   299.36467     -0.16461945    -0.080782208    44.053058      0.511          1624.6677    
     51200   302.27404      0.19429224     0.12395172     44.082213      0.512         -1917.5154    
     51300   297.44633      0.12779088     0.047934256    44.111368      0.513         -1261.198     
     51400   298.92495      0.11564348     0.14702766     44.140523      0.514         -1141.3124    
     51500   302.29437      0.15412312     0.074183115    44.169678      0.515         -1521.0769    
     51600   297.80546      0.080985011    0.096844046    44.198833      0.516         -799.25992    
     51700   306.15482      0.35102538     0.12504437     44.227988      0.517         -3464.3512    
     51800   298.0838       0.2669904      0.080293426    44.257143      0.518         -2634.9904    
     51900   303.94006      0.062113127    0.024399515    44.286298      0.519         -613.0089     
     52000   297.07068      0.12219458    -0.031388419    44.315452      0.52          -1205.9668    
     52100   295.6085       0.17767284     0.087087725    44.344607      0.521         -1753.4946    
     52200   302.18579     -0.0446904      0.038218157    44.373762      0.522          441.05996    
     52300   306.26657      0.0061048598  -0.049334008    44.402917      0.523         -60.250282    
     52400   299.95681      0.206793       0.047593323    44.432072      0.524         -2040.8882    
     52500   303.1361       0.04070826     0.23248872     44.461227      0.525         -401.75929    
     52600   305.46978      0.010838792    0.0033715576   44.490382      0.526         -106.97056    
     52700   304.81228      0.10923212     0.24270301     44.519537      0.527         -1078.0372    
     52800   296.09989      0.16095685     0.06629274     44.548692      0.528         -1588.5206    
     52900   302.29491      0.31965533     0.13002756     44.577847      0.529         -3154.7528    
     53000   295.78017      0.069264956    0.094578431    44.607001      0.53          -683.59197    
     53100   301.28481      0.028748136    0.14965838     44.636156      0.531         -283.72204    
     53200   300.50594      0.18466088     0.10374218     44.665311      0.532         -1822.4612    
     53300   297.28161      0.15885916     0.1338966      44.694466      0.533         -1567.8181    
     53400   299.94938     -0.29290288     0.052415017    44.723621      0.534          2890.7266    
     53500   304.436       -0.086023613    0.10495079     44.752776      0.535          848.98706    
     53600   305.27444     -0.27016526     0.039016735    44.781931      0.536          2666.3238    
     53700   301.96857     -0.097506859    0.14673314     44.811086      0.537          962.31788    
     53800   300.60658      0.30960043     0.07332374     44.840241      0.538         -3055.5186    
     53900   306.08795      0.29605089     0.12519694     44.869396      0.539         -2921.7951    
     54000   306.64357      0.02786716     0.027607684    44.89855       0.54          -275.02749    
     54100   298.56243      0.21932807     0.082681585    44.927705      0.541         -2164.5998    
     54200   299.63488      0.23506136     0.24678761     44.95686       0.542         -2319.8753    
     54300   299.51691     -0.062576193    0.055170229    44.986015      0.543          617.57901    
     54400   297.97457      0.34413264     0.12738183     45.01517       0.544         -3396.3251    
     54500   305.52096     -0.083001609    0.094557167    45.044325      0.545          819.1622     
     54600   296.27174      0.2180957      0.1905405      45.07348       0.546         -2152.4372    
     54700   300.09696      0.040479839    0.063014089    45.102635      0.547         -399.50495    
     54800   303.61367     -0.033082907    0.017244147    45.13179       0.548          326.50291    
     54900   300.53862     -0.016984341    0.030357529    45.160945      0.549          167.62242    
     55000   301.68601     -0.11096465     0.058481889    45.1901        0.55           1095.136     
     55100   300.57265      0.15687595     0.14661214     45.219254      0.551         -1548.2452    
     55200   297.68095      0.079248649    0.24832094     45.248409      0.552         -782.12335    
     55300   296.52486      0.061556629    0.082688235    45.277564      0.553         -607.51669    
     55400   299.82134      0.059182248    0.1975682      45.306719      0.554         -584.08337    
     55500   303.42658     -0.015212452    0.124126       45.335874      0.555          150.13523    
     55600   297.14282      0.060333235    0.063240159    45.365029      0.556         -595.44273    
     55700   300.85225      0.26198357     0.15343869     45.394184      0.557         -2585.5768    
     55800   300.84282      0.15964937     0.15634314     45.423339      0.558         -1575.6168    
     55900   302.48074      0.36691959     0.098030674    45.452494      0.559         -3621.2148    
     56000   299.23499      0.28076562     0.042107752    45.481649      0.56          -2770.9412    
     56100   307.07141      0.18511605     0.20321775     45.510803      0.561         -1826.9534    
     56200   301.99767     -0.11034157    -0.01144        45.539958      0.562          1088.9866    
     56300   300.67028      0.17948241     0.039216385    45.569113      0.563         -1771.3536    
     56400   300.77181      0.2500833      0.1217201      45.598268      0.564         -2468.1302    
     56500   305.20844      0.10801133     0.095111263    45.627423      0.565         -1065.9889    
     56600   298.99526     -0.060658272    0.11456802     45.656578      0.566          598.6506     
     56700   298.5895       0.33400192     0.16145113     45.685733      0.567         -3296.3427    
     56800   302.59963      0.21798738     0.10334461     45.714888      0.568         -2151.3682    
     56900   299.81559      0.083035423    0.040311054    45.744043      0.569         -819.49591    
     57000   305.56948      0.031880785    0.12348313     45.773198      0.57          -314.63888    
     57100   302.07004      0.032132872    0.20278339     45.802352      0.571         -317.12679    
     57200   305.05608      0.04311002     0.2355098      45.831507      0.572         -425.46282    
     57300   298.142        0.10601591     0.16719521     45.860662      0.573         -1046.2957    
     57400   298.75654      0.11483845     0.14993071     45.889817      0.574         -1133.3674    
     57500   304.49953     -0.19352382     0.046547806    45.918972      0.575          1909.9316    
     57600   304.9399       0.04771329     0.096812429    45.948127      0.576         -470.89356    
     57700   306.17597     -0.00053111613  0.13570502     45.977282      0.577          5.2417087    
     57800   302.06334     -0.18597932     0.091295761    46.006437      0.578          1835.4732    
     57900   299.1064      -0.10605737     0.12866678     46.035592      0.579          1046.7049    
     58000   293.94736      0.23450679     0.16694305     46.064747      0.58          -2314.4021    
     58100   296.20859      0.27212791     0.14665646     46.093901      0.581         -2685.6937    
     58200   302.85059      0.44966764     0.23943482     46.123056      0.582         -4437.8745    
     58300   302.22554      0.013751112    0.12970913     46.152211      0.583         -135.71293    
     58400   296.24427      0.26398545     0.13519937     46.181366      0.584         -2605.3338    
     58500   297.23586      0.26051253     0.20112806     46.210521      0.585         -2571.0587    
     58600   291.576       -0.11415582     0.068763382    46.239676      0.586          1126.6304    
     58700   299.08979      0.17794055     0.10509531     46.268831      0.587         -1756.1367    
     58800   297.1247       0.073569454    0.21351232     46.297986      0.588         -726.07406    
     58900   301.77621      0.16763139     0.088134894    46.327141      0.589         -1654.3932    
     59000   300.96099      0.24930406     0.20155352     46.356296      0.59          -2460.4398    
     59100   299.90713      0.12647552     0.26238153     46.385451      0.591         -1248.2164    
     59200   303.17325      0.088049809    0.19914544     46.414605      0.592         -868.98405    
     59300   297.24993      0.14329518     0.19434845     46.44376       0.593         -1414.2135    
     59400   299.9811       0.16688997     0.086080955    46.472915      0.594         -1647.0759    
     59500   295.299        0.11212686    -0.01804949     46.50207       0.595         -1106.6061    
     59600   303.9613       0.59539686     0.19501275     46.531225      0.596         -5876.1101    
     59700   295.25734      0.42650253     0.18730729     46.56038       0.597         -4209.2527    
     59800   301.04871      0.015488516    0.18494222     46.589535      0.598         -152.85977    
     59900   300.27445      0.04362278     0.10773992     46.61869       0.599         -430.52337    
     60000   297.57446      0.13044307     0.14636953     46.647845      0.6           -1287.373     
     60100   303.14284      0.2384573      0.049565       46.677         0.601         -2353.3906    
     60200   300.12272      0.23069349     0.05759602     46.706154      0.602         -2276.7677    
     60300   303.94123      0.39333967     0.22307243     46.735309      0.603         -3881.9607    
     60400   296.75203      0.28179726     0.060483483    46.764464      0.604         -2781.1227    
     60500   298.85607     -0.010919446    0.054906585    46.793619      0.605          107.76655    
     60600   301.47545      0.11849119     0.13277833     46.822774      0.606         -1169.4171    
     60700   306.17571      0.02669874     0.064298891    46.851929      0.607         -263.49608    
     60800   302.13222     -0.022590331    0.11868037     46.881084      0.608          222.94923    
     60900   299.63209      0.26293695     0.220297       46.910239      0.609         -2594.9859    
     61000   297.46008      0.05006448     0.12144951     46.939394      0.61          -494.098      
     61100   307.23434      0.19444105     0.15059863     46.968549      0.611         -1918.984     
     61200   302.24448      0.30437123     0.19906052     46.997703      0.612         -3003.9105    
     61300   294.26356     -0.2271844      0.13785682     47.026858      0.613          2242.1357    
     61400   298.35216     -0.21917713     0.025275802    47.056013      0.614          2163.1101    
     61500   295.77488      0.2749471      0.088022046    47.085168      0.615         -2713.5169    
     61600   299.40966      0.31079809     0.26769565     47.114323      0.616         -3067.3387    
     61700   294.25099      0.11385201     0.22190722     47.143478      0.617         -1123.632     
     61800   295.89189      0.28928933     0.23958531     47.172633      0.618         -2855.0637    
     61900   303.18432      0.13772195     0.048910566    47.201788      0.619         -1359.21      
     62000   302.67868      0.30057032     0.14680192     47.230943      0.62          -2966.3984    
     62100   300.84563      0.057296242    0.20023837     47.260098      0.621         -565.46994    
     62200   300.87419      0.18086225     0.18565576     47.289253      0.622         -1784.9716    
     62300   297.157        0.40323589     0.16207759     47.318407      0.623         -3979.6288    
     62400   298.11272     -0.079633303    0.083900914    47.347562      0.624          785.91959    
     62500   297.89895      0.14381779     0.006210166    47.376717      0.625         -1419.3712    
     62600   298.03564      0.11989318     0.23469968     47.405872      0.626         -1183.2537    
     62700   297.00907     -0.044371467   -0.038383067    47.435027      0.627          437.91233    
     62800   302.42109      0.059885606    0.13884602     47.464182      0.628         -591.02498    
     62900   292.00454      0.03823395     0.11912028     47.493337      0.629         -377.33975    
     63000   300.20404      0.31056162     0.15087523     47.522492      0.63          -3065.0049    
     63100   297.95958      0.25059638     0.1924184      47.551647      0.631         -2473.194     
     63200   297.40449      0.061055769    0.16613663     47.580802      0.632         -602.57359    
     63300   305.70555      0.20308567     0.11470967     47.609956      0.633         -2004.2997    
     63400   302.63066      0.25361805     0.070928395    47.639111      0.634         -2503.0156    
     63500   300.65652      0.28964332     0.083885609    47.668266      0.635         -2858.5573    
     63600   295.94259      0.15890617     0.2742948      47.697421      0.636         -1568.282     
     63700   300.2521       0.38114099     0.18790132     47.726576      0.637         -3761.5691    
     63800   302.3168       0.33215471     0.2349514      47.755731      0.638         -3278.1121    
     63900   299.83911      0.1303616      0.16902156     47.784886      0.639         -1286.5689    
     64000   303.56795      0.12988028     0.28044093     47.814041      0.64          -1281.8187    
     64100   305.55114      0.088593329    0.089178604    47.843196      0.641         -874.34818    
     64200   302.98756      0.31147081     0.17833117     47.872351      0.642         -3073.9778    
     64300   294.90147      0.25504927     0.18171808     47.901505      0.643         -2517.1406    
     64400   298.90627      0.035157008    0.14872108     47.93066       0.644         -346.97269    
     64500   303.83316     -0.18175117     0.25888117     47.959815      0.645          1793.7446    
     64600   296.38752      0.11025651     0.0954192      47.98897       0.646         -1088.1472    
     64700   296.61582      0.14041027     0.24036345     48.018125      0.647         -1385.7416    
     64800   300.39757     -0.21518215     0.075840475    48.04728       0.648          2123.6827    
     64900   304.03384      0.39092943     0.0024561127   48.076435      0.649         -3858.1735    
     65000   293.99758      0.38826185     0.31369426     48.10559       0.65          -3831.8466    
     65100   301.81484     -0.15878879     0.18846504     48.134745      0.651          1567.1235    
     65200   301.34814      0.30078624     0.10027299     48.1639        0.652         -2968.5294    
     65300   295.09867      0.38121941     0.29681814     48.193055      0.653         -3762.3431    
     65400   297.05816      0.029993387    0.082450128    48.222209      0.654         -296.01172    
     65500   299.6499       0.30430897     0.078800838    48.251364      0.655         -3003.296     
     65600   294.10145      0.27530576     0.12273741     48.280519      0.656         -2717.0566    
     65700   301.6598       0.51625924     0.083819271    48.309674      0.657         -5095.0825    
     65800   299.86307     -0.0072543107   0.098311635    48.338829      0.658          71.594481    
     65900   297.1837       0.26215502     0.058054351    48.367984      0.659         -2587.2688    
     66000   299.66478      0.46399881     0.22327358     48.397139      0.66          -4579.3122    
     66100   299.72936      0.075302414    0.091476603    48.426294      0.661         -743.17704    
     66200   300.15072      0.23276858     0.21634676     48.455449      0.662         -2297.2473    
     66300   298.95499      0.0083483311   0.24943804     48.484604      0.663         -82.391622    
     66400   304.02019      0.11471321     0.094628035    48.513758      0.664         -1132.1314    
     66500   299.20007      0.18163263     0.23887028     48.542913      0.665         -1792.5746    
     66600   304.25774      0.24379906     0.26632137     48.572068      0.666         -2406.1096    
     66700   300.71529      0.28721077     0.0076828061   48.601223      0.667         -2834.5499    
     66800   296.8145       0.29108481     0.19657323     48.630378      0.668         -2872.7837    
     66900   299.87923     -0.2393566      0.0077928734   48.659533      0.669          2362.266     
     67000   298.41719      0.11085969     0.14093925     48.688688      0.67          -1094.1001    
     67100   303.83989      0.099859732    0.081218018    48.717843      0.671         -985.53893    
     67200   297.61237      0.31181789     0.21036032     48.746998      0.672         -3077.4033    
     67300   297.18651      0.20256512     0.12663567     48.776153      0.673         -1999.1623    
     67400   303.36527     -0.27126269    -0.063773602    48.805307      0.674          2677.1546    
     67500   301.46205     -0.12459041     0.12318579     48.834462      0.675          1229.6117    
     67600   303.42414      0.3535033      0.13051707     48.863617      0.676         -3488.8063    
     67700   296.90405      0.060392341    0.18909887     48.892772      0.677         -596.02606    
     67800   296.43597      0.14733692     0.14225828     48.921927      0.678         -1454.1024    
     67900   295.35823      0.21399609     0.19973555     48.951082      0.679         -2111.9772    
     68000   302.89261      0.29251471     0.19914696     48.980237      0.68          -2886.8957    
     68100   299.1429      -0.10390754     0.10223743     49.009392      0.681          1025.4877    
     68200   303.53444     -0.41590777     0.070637947    49.038547      0.682          4104.6905    
     68300   303.68633      0.1421902      0.027448273    49.067702      0.683         -1403.3082    
     68400   302.78563      0.51755377     0.29371003     49.096856      0.684         -5107.8586    
     68500   296.82327      0.019704276    0.16881414     49.126011      0.685         -194.46609    
     68600   297.46181      0.086231334    0.14037553     49.155166      0.686         -851.0371     
     68700   294.94275      0.20989899     0.15674231     49.184321      0.687         -2071.542     
     68800   294.70406      0.082229929    0.052978741    49.213476      0.688         -811.5463     
     68900   300.69429      0.34469531     0.12662772     49.242631      0.689         -3401.8782    
     69000   301.30228      0.11663865     0.22950471     49.271786      0.69          -1151.1339    
     69100   305.19535     -0.065173326    0.11465072     49.300941      0.691          643.21072    
     69200   298.09157      0.33898923     0.18155779     49.330096      0.692         -3345.5635    
     69300   300.75764      0.030931864    0.14069702     49.359251      0.693         -305.27376    
     69400   295.81602      0.16778636     0.11654392     49.388406      0.694         -1655.9226    
     69500   297.30987      0.43907486     0.079277644    49.41756       0.695         -4333.332     
     69600   301.76052     -0.018205135    0.18499532     49.446715      0.696          179.67071    
     69700   298.05725      0.00046622397  0.096194729    49.47587       0.697         -4.6012728    
     69800   303.90775     -0.31513169     0.062528565    49.505025      0.698          3110.108     
     69900   297.45084      0.061541059    0.013220136    49.53418       0.699         -607.36303    
     70000   300.96784      0.10490073     0.11858501     49.563335      0.7           -1035.2897    
     70100   300.90013      0.3284311      0.18565652     49.59249       0.701         -3241.363     
     70200   297.35603      0.44556674     0.28459916     49.621645      0.702         -4397.4019    
     70300   302.71055      0.10060376     0.10302424     49.6508        0.703         -992.88196    
     70400   304.89263      0.064523468    0.15791917     49.679955      0.704         -636.79712    
     70500   303.44078     -0.010403878    0.16772738     49.709109      0.705          102.6783     
     70600   301.78735      0.1025489      0.087464431    49.738264      0.706         -1012.079     
     70700   303.64342      0.39634699     0.24132727     49.767419      0.707         -3911.6407    
     70800   303.31616      0.24961078     0.11813551     49.796574      0.708         -2463.4668    
     70900   299.17396      0.1364921      0.077172165    49.825729      0.709         -1347.0723    
     71000   297.35071      0.027136278    0.17020233     49.854884      0.71          -267.81424    
     71100   300.17931      0.089147049    0.24632944     49.884039      0.711         -879.81297    
     71200   300.12357      0.23821639     0.24578517     49.913194      0.712         -2351.0129    
     71300   301.9691      -0.21073614     0.07637772     49.942349      0.713          2079.804     
     71400   301.85963      0.34925407    -0.014896893    49.971504      0.714         -3446.8697    
     71500   301.16967      0.52037427     0.16485451     50.000658      0.715         -5135.6947    
     71600   300.36584      0.36663505    -0.019998264    50.029813      0.716         -3618.4066    
     71700   296.96728      0.26687926     0.22014515     50.058968      0.717         -2633.8935    
     71800   299.89132     -0.11965804     0.19686014     50.088123      0.718          1180.933     
     71900   301.84662      0.22474426     0.0096370482   50.117278      0.719         -2218.0534    
     72000   298.04531      0.34399991     0.26279583     50.146433      0.72          -3395.0151    
     72100   300.197        0.19671314     0.079897206    50.175588      0.721         -1941.4077    
     72200   302.417        0.17774877     0.071410648    50.204743      0.722         -1754.244     
     72300   303.72987     -0.14409269     0.074964292    50.233898      0.723          1422.0843    
     72400   302.24274     -0.0037077081   0.14304023     50.263053      0.724          36.592234    
     72500   298.17671     -0.062622129    0.25276209     50.292208      0.725          618.03236    
     72600   292.87264      0.092924234    0.079029426    50.321362      0.726         -917.09088    
     72700   299.95812      0.28598317     0.13209355     50.350517      0.727         -2822.4345    
     72800   300.14875      0.16973805     0.13498374     50.379672      0.728         -1675.1843    
     72900   296.82011      0.29262251     0.10123664     50.408827      0.729         -2887.9596    
     73000   301.31282      0.35372724     0.2022142      50.437982      0.73          -3491.0164    
     73100   298.37041      0.25800889     0.18913199     50.467137      0.731         -2546.3497    
     73200   297.45262      0.26891112     0.2220865      50.496292      0.732         -2653.9464    
     73300   299.21189     -0.19979957     0.18822093     50.525447      0.733          1971.8684    
     73400   302.42956      0.039727986    0.044051599    50.554602      0.734         -392.08474    
     73500   302.53086      0.14757066     0.1655383      50.583757      0.735         -1456.4092    
     73600   309.41741     -0.14022054     0.15505201     50.612911      0.736          1383.8691    
     73700   295.19118      0.19691928     0.17650476     50.642066      0.737         -1943.4422    
     73800   298.30488      0.070472743    0.10865146     50.671221      0.738         -695.5119     
     73900   300.48047      0.44786821     0.22802998     50.700376      0.739         -4420.1156    
     74000   296.97579      0.1391359      0.18674476     50.729531      0.74          -1373.1646    
     74100   301.25431      0.28898823     0.093829807    50.758686      0.741         -2852.092     
     74200   307.9351      -0.017410764    0.090625748    50.787841      0.742          171.83088    
     74300   299.64878      0.20576945     0.223238       50.816996      0.743         -2030.7865    
     74400   298.66588     -0.062274242    0.10895751     50.846151      0.744          614.59899    
     74500   301.16369     -0.019137538    0.10603081     50.875306      0.745          188.87281    
     74600   300.05486      0.51065859     0.29393015     50.90446       0.746         -5039.8085    
     74700   298.84753      0.17815668     0.18596526     50.933615      0.747         -1758.2697    
     74800   303.11309      0.49567982     0.19922737     50.96277       0.748         -4891.9794    
     74900   296.34124      0.16478405     0.28917279     50.991925      0.749         -1626.2921    
     75000   304.81945      0.19322053     0.084351253    51.02108       0.75          -1906.9384    
     75100   302.66912      0.32604278     0.2256727      51.050235      0.751         -3217.7921    
     75200   301.76451      0.20937161     0.31523327     51.07939       0.752         -2066.3371    
     75300   298.70636     -0.10236583     0.13693314     51.108545      0.753          1010.2722    
     75400   291.79806      0.57102212     0.20045069     51.1377        0.754         -5635.5501    
     75500   299.09401      0.33910417     0.23174162     51.166855      0.755         -3346.6979    
     75600   301.44396      0.10978267     0.10822554     51.19601       0.756         -1083.4707    
     75700   308.11635      0.1634389      0.029599625    51.225164      0.757         -1613.0166    
     75800   295.4521       0.14218936     0.1723504      51.254319      0.758         -1403.2999    
     75900   297.10247      0.24232719     0.19890101     51.283474      0.759         -2391.5834    
[...]
     81900   304.1468       0.21955026     0.33275762     53.032768      0.819         -2166.7926    
     82000   305.13512      0.21248573     0.13369735     53.061923      0.82          -2097.0711    
     82100   298.32377      0.075644474    0.26782486     53.091078      0.821         -746.55291    
     82200   303.91387      0.13770956     0.27885534     53.120233      0.822         -1359.0877    
     82300   298.15448     -0.092534532    0.02535425     53.149388      0.823          913.24483    
     82400   304.27715     -0.16455782     0.010452638    53.178543      0.824          1624.0595    
     82500   297.78247      0.19140842     0.17246845     53.207698      0.825         -1889.0542    
     82600   294.9523      -0.088435926    0.092919772    53.236853      0.826          872.79473    
     82700   303.9881       0.36326802     0.14731567     53.266008      0.827         -3585.1766    
     82800   300.8422       0.22337343     0.16713153     53.295163      0.828         -2204.5243    
     82900   297.40441      0.52293953     0.22706764     53.324317      0.829         -5161.0119    
     83000   296.37995      0.27986294     0.22487386     53.353472      0.83          -2762.0325    
     83100   300.52426      0.10945113     0.23089921     53.382627      0.831         -1080.1987    
     83200   293.8802       0.15077333     0.12583542     53.411782      0.832         -1488.017     
     83300   298.59022     -0.14626713     0.1632511      53.440937      0.833          1443.5444    
     83400   300.25323      0.17782997     0.18292192     53.470092      0.834         -1755.0453    
     83500   294.08465      0.31922852     0.24353982     53.499247      0.835         -3150.5405    
     83600   300.27694      0.35139832     0.16685929     53.528402      0.836         -3468.0318    
     83700   297.81281      0.11514609     0.29248025     53.557557      0.837         -1136.4035    
     83800   299.00268      0.42817648     0.1481475      53.586712      0.838         -4225.7733    
     83900   299.02365     -0.039465247    0.15074375     53.615866      0.839          389.4917     
     84000   299.49215      0.099040911    0.11319697     53.645021      0.84          -977.45779    
     84100   298.61552      0.11814204     0.11916022     53.674176      0.841         -1165.9713    
     84200   300.03254      0.37290874     0.063628736    53.703331      0.842         -3680.3231    
     84300   300.46647      0.33094252     0.1486426      53.732486      0.843         -3266.1487    
     84400   297.96937      0.13804999     0.21614277     53.761641      0.844         -1362.4475    
     84500   297.20498      0.063345349    0.13323937     53.790796      0.845         -625.16998    
     84600   297.99319      0.026306356    0.22761574     53.819951      0.846         -259.62355    
     84700   303.39049      0.091394324    0.17932132     53.849106      0.847         -901.99184    
     84800   300.55253      0.23144326     0.20370943     53.878261      0.848         -2284.1674    
     84900   302.93834      0.19136036     0.23637406     53.907415      0.849         -1888.5799    
     85000   298.99669      0.11181187     0.096444161    53.93657       0.85          -1103.4974    
     85100   300.24373      0.33291273     0.14426062     53.965725      0.851         -3285.5932    
     85200   298.26483     -0.039802285    0.10240031     53.99488       0.852          392.81802    
     85300   296.16956      0.077951032    0.14148398     54.024035      0.853         -769.31687    
     85400   295.66394      0.16759704     0.20971907     54.05319       0.854         -1654.0542    
     85500   301.01057      0.14804995     0.0892246      54.082345      0.855         -1461.1394    
     85600   298.32143      0.15213019     0.24640506     54.1115        0.856         -1501.4083    
     85700   296.43024      0.16079645     0.21861882     54.140655      0.857         -1586.9376    
     85800   299.25501      0.065343555   -0.031561388    54.16981       0.858         -644.89075    
     85900   302.92126     -0.017294823    0.091453927    54.198965      0.859          170.68663    
     86000   300.57544     -0.027214762    0.18701453     54.228119      0.86           268.58882    
     86100   298.82016      0.097648288    0.17000982     54.257274      0.861         -963.71367    
     86200   302.24777     -0.19606895     0.15442953     54.286429      0.862          1935.0501    
     86300   297.42053      0.26540095     0.17195096     54.315584      0.863         -2619.3037    
     86400   297.04833     -0.088926054    0.23859388     54.344739      0.864          877.63192    
     86500   306.87854     -0.1974099     -0.078936915    54.373894      0.865          1948.2842    
     86600   297.27568      0.43812601     0.12667007     54.403049      0.866         -4323.9675    
     86700   299.52722      0.16856423     0.28137167     54.432204      0.867         -1663.5996    
     86800   299.37006     -0.12981478     0.14262507     54.461359      0.868          1281.1723    
     86900   298.32974      0.10231881     0.25012423     54.490514      0.869         -1009.8082    
     87000   299.18357     -0.10586577     0.13602551     54.519668      0.87           1044.8139    
     87100   296.45335      0.31759478     0.0743794      54.548823      0.871         -3134.4168    
     87200   300.65381     -0.23522154     0.12244114     54.577978      0.872          2321.4561    
     87300   306.30502      0.30555669     0.060217991    54.607133      0.873         -3015.6101    
     87400   303.80071      0.70500051     0.30573704     54.636288      0.874         -6957.8141    
     87500   298.85152      0.060227993    0.076072095    54.665443      0.875         -594.40408    
     87600   302.78353      0.18051559     0.048862266    54.694598      0.876         -1781.5504    
     87700   298.12553      0.38477184     0.22107491     54.723753      0.877         -3797.4028    
     87800   298.64463      0.019370729    0.11612488     54.752908      0.878         -191.17423    
     87900   305.18665     -0.13759426     0.055635479    54.782063      0.879          1357.9498    
     88000   298.05708      0.033617836    0.087732637    54.811217      0.88          -331.78224    
     88100   296.50002     -0.094044346    0.21478574     54.840372      0.881          928.14554    
     88200   302.46516     -0.075964179   -0.016939614    54.869527      0.882          749.70816    
     88300   298.05393      0.01209109     0.064057726    54.898682      0.883         -119.32978    
     88400   297.39561      0.023708456    0.038726067    54.927837      0.884         -233.98427    
     88500   300.33582      0.070391457    0.27868731     54.956992      0.885         -694.70967    
     88600   302.58119      0.12985747     0.1761238      54.986147      0.886         -1281.5936    
     88700   294.41521     -0.027965204   -0.021538275    55.015302      0.887          275.99511    
     88800   296.18514      0.0247898      0.20163226     55.044457      0.888         -244.6563     
     88900   302.77392     -0.044394305    0.12607558     55.073612      0.889          438.13773    
     89000   294.62528      0.23115302     0.07260188     55.102766      0.89          -2281.303     
     89100   301.74549     -0.24496892     0.012990883    55.131921      0.891          2417.6553    
     89200   301.29868     -0.14777313     0.15648916     55.161076      0.892          1458.4074    
     89300   298.69897      0.16107714     0.10482206     55.190231      0.893         -1589.7078    
     89400   296.59629      0.059200771    0.095126861    55.219386      0.894         -584.26618    
     89500   299.8326      -0.15580241     0.12407002     55.248541      0.895          1537.6502    
     89600   303.46388     -0.023685691    0.18667986     55.277696      0.896          233.7596     
     89700   296.14595     -0.031163351    0.20450447     55.306851      0.897          307.55836    
     89800   302.28143      0.34643668     0.22439291     55.336006      0.898         -3419.0642    
     89900   307.06066      0.052704815    0.087472062    55.365161      0.899         -520.15608    
     90000   297.52559      0.35882969     0.091121449    55.394316      0.9           -3541.3737    
     90100   296.52094      0.64933779     0.16782156     55.42347       0.901         -6408.4657    
     90200   295.31965      0.34454483     0.25000529     55.452625      0.902         -3400.3931    
     90300   298.63873      0.29052885     0.055331512    55.48178       0.903         -2867.2969    
     90400   293.38401      0.082288017    0.12504536     55.510935      0.904         -812.11958    
     90500   304.57094      0.18627862     0.19924917     55.54009       0.905         -1838.427     
     90600   300.91677      0.058980332    0.22182793     55.569245      0.906         -582.09062    
     90700   298.81188     -0.04441031     0.16884427     55.5984        0.907          438.29568    
     90800   300.61992      0.063218639    0.022282226    55.627555      0.908         -623.91946    
     90900   300.1943       0.25436134     0.15559998     55.65671       0.909         -2510.3512    
     91000   300.82632      0.35353454     0.15836501     55.685865      0.91          -3489.1146    
     91100   299.65275      0.15274539     0.18686395     55.715019      0.911         -1507.4798    
     91200   298.6439       0.28862086     0.10615985     55.744174      0.912         -2848.4664    
     91300   299.17844      0.33501645     0.15558121     55.773329      0.913         -3306.3553    
     91400   304.06754      0.4475583      0.15160287     55.802484      0.914         -4417.057     
     91500   301.53296      0.21690053     0.13536678     55.831639      0.915         -2140.6418    
     91600   296.08084      0.22869991     0.22944154     55.860794      0.916         -2257.0926    
     91700   302.33852     -0.14315134     0.085411308    55.889949      0.917          1412.7939    
     91800   302.03902     -0.019864086   -0.077592666    55.919104      0.918          196.04329    
     91900   303.36474      0.18479519     0.12179165     55.948259      0.919         -1823.7867    
     92000   302.44939      0.1071176      0.20455013     55.977414      0.92          -1057.1686    
     92100   297.24551      0.13985723     0.1667912      56.006568      0.921         -1380.2836    
     92200   303.2658       0.20550987     0.12738694     56.035723      0.922         -2028.2247    
     92300   302.8186       0.046013633    0.13689874     56.064878      0.923         -454.11925    
     92400   299.78321      0.29169625     0.0565075      56.094033      0.924         -2878.8182    
     92500   296.89379      0.15281181     0.090218992    56.123188      0.925         -1508.1353    
     92600   302.08972      0.12502084     0.10573453     56.152343      0.926         -1233.8597    
     92700   301.12248      0.094307226    0.22712864     56.181498      0.927         -930.73996    
     92800   300.38461      0.081913778    0.1483889      56.210653      0.928         -808.42613    
     92900   299.29619      0.32515463     0.20385908     56.239808      0.929         -3209.0267    
     93000   302.24123     -0.21511739     0.15671309     56.268963      0.93           2123.0435    
     93100   303.58068      0.0024981707  -0.068909629    56.298118      0.931         -24.655028    
     93200   300.09137      0.17661993     0.17607612     56.327272      0.932         -1743.1032    
     93300   306.52014     -0.079901114    0.028042123    56.356427      0.933          788.56268    
     93400   297.12123      0.35331556     0.11750514     56.385582      0.934         -3486.9535    
     93500   297.69477      0.24163097     0.3037156      56.414737      0.935         -2384.7122    
     93600   303.92106      0.52635042     0.11757579     56.443892      0.936         -5194.6747    
     93700   295.83362      0.24514961     0.26344502     56.473047      0.937         -2419.4386    
     93800   303.1294       0.48166971     0.22542383     56.502202      0.938         -4753.7104    
     93900   299.98591      0.35190154     0.15646808     56.531357      0.939         -3472.9981    
     94000   295.06213      0.15874846     0.26043996     56.560512      0.94          -1566.7255    
     94100   301.57748      0.30438533     0.32698913     56.589667      0.941         -3004.0497    
     94200   294.03779     -0.0087306244   0.099689771    56.618821      0.942          86.164563    
     94300   302.98699      0.27986957     0.093165253    56.647976      0.943         -2762.0979    
     94400   300.88882      0.2023713      0.24812832     56.677131      0.944         -1997.2495    
     94500   296.54334      0.45334716     0.22474888     56.706286      0.945         -4474.1886    
     94600   299.8461       0.41653188     0.21167697     56.735441      0.946         -4110.85      
     94700   308.35126      0.054063088    0.20723004     56.764596      0.947         -533.56119    
     94800   307.17408     -0.17848465     0.0036257389   56.793751      0.948          1761.5065    
     94900   296.42495     -0.080852264   -0.0032916668   56.822906      0.949          797.94981    
     95000   296.83541      0.10895343     0.14829449     56.852061      0.95          -1075.2867    
     95100   297.33999      0.018721147    0.19100678     56.881216      0.951         -184.76335    
     95200   298.24309     -0.075100325    0.085740825    56.91037       0.952          741.18258    
     95300   302.45441     -0.035805508    0.010190614    56.939525      0.953          353.37289    
     95400   301.73875      0.26608502     0.05837516     56.96868       0.954         -2626.055     
     95500   298.9236       0.3455755      0.22803531     56.997835      0.955         -3410.565     
     95600   300.35722      0.32089518     0.26668949     57.02699       0.956         -3166.9892    
     95700   298.16509      0.22291054     0.22073853     57.056145      0.957         -2199.956     
     95800   296.30952      0.4991285      0.21415873     57.0853        0.958         -4926.0153    
     95900   297.29089      0.36017192     0.24646523     57.114455      0.959         -3554.6205    
     96000   297.12994      0.050507931    0.1665704      57.14361       0.96          -498.47452    
     96100   299.84698      0.27231344     0.11108714     57.172765      0.961         -2687.5247    
     96200   301.03712      0.46322743     0.34585174     57.20192       0.962         -4571.6992    
     96300   298.75928      0.13431461     0.19730466     57.231074      0.963         -1325.5821    
     96400   300.29709      0.36699661     0.27303218     57.260229      0.964         -3621.975     
     96500   305.45798      0.20275991     0.32116956     57.289384      0.965         -2001.0847    
     96600   301.07064     -0.073549916    0.17517471     57.318539      0.966          725.88123    
     96700   299.22163      0.26856829     0.13214233     57.347694      0.967         -2650.563     
     96800   298.94614      0.17178759     0.25848193     57.376849      0.968         -1695.4117    
     96900   307.91791      0.043949665    0.071618982    57.406004      0.969         -433.74947    
     97000   299.55533      0.38711119     0.13031802     57.435159      0.97          -3820.4904    
     97100   299.1269       0.039681606    0.13114344     57.464314      0.971         -391.627      
     97200   299.12065     -0.077727235    0.10955799     57.493469      0.972          767.10817    
     97300   297.22087     -0.020365738    0.088517411    57.522623      0.973          200.9942     
     97400   299.60379      0.12351017     0.20564558     57.551778      0.974         -1218.9506    
     97500   298.78229      0.18056999     0.1078638      57.580933      0.975         -1782.0873    
     97600   298.75464      0.24119233     0.14077818     57.610088      0.976         -2380.3833    
     97700   300.88532      0.27403438     0.013603596    57.639243      0.977         -2704.509     
     97800   294.0807       0.22075025     0.17902089     57.668398      0.978         -2178.6356    
     97900   301.45816      0.43270215     0.19723911     57.697553      0.979         -4270.4382    
     98000   298.30057      0.068919327    0.16799498     57.726708      0.98          -680.18087    
     98100   298.93013     -0.081780966    0.097649899    57.755863      0.981          807.11538    
     98200   301.61976      0.26002743     0.26038842     57.785018      0.982         -2566.2712    
     98300   302.78781      0.068574085    0.21102586     57.814172      0.983         -676.7736     
     98400   302.9755      -0.18600935     0.11032212     57.843327      0.984          1835.7696    
     98500   299.85363      0.29604647     0.095850384    57.872482      0.985         -2921.7515    
     98600   298.32562      0.18014302     0.12572122     57.901637      0.986         -1777.8734    
     98700   291.91094     -0.14820461    -0.0060383593   57.930792      0.987          1462.6658    
     98800   301.62048      0.28869673     0.20660829     57.959947      0.988         -2849.2152    
     98900   300.76932      0.05535822     0.19512461     57.989102      0.989         -546.34315    
     99000   297.634        0.036138151    0.021932239    58.018257      0.99          -356.65583    
     99100   299.47076      0.17863593     0.0050383219   58.047412      0.991         -1762.9996    
     99200   297.80419      0.25683189     0.17900091     58.076567      0.992         -2534.7337    
     99300   299.01324      0.14764827     0.11098821     58.105721      0.993         -1457.1751    
     99400   303.35226      0.1196258      0.068464552    58.134876      0.994         -1180.6148    
     99500   299.35125      0.46557573     0.24869663     58.164031      0.995         -4594.8752    
     99600   300.46579     -0.066037946    0.077666728    58.193186      0.996          651.74386    
     99700   301.67341      0.042856527    0.0011907769   58.222341      0.997         -422.96103    
     99800   301.46876      0.23594557     0.13126411     58.251496      0.998         -2328.6017    
     99900   304.82634     -0.018261933    0.22539884     58.280651      0.999          180.23127    
    100000   298.25489      0.064645707    0.12407139     58.309806      1             -638.00353    
Loop time of 703.955 on 4 procs for 100000 steps with 2808 atoms

Performance: 12.274 ns/day, 1.955 hours/ns, 142.054 timesteps/s
252.6% CPU use with 1 MPI tasks x 4 OpenMP threads

MPI task timing breakdown:
Section |  min time  |  avg time  |  max time  |%varavg| %total
---------------------------------------------------------------
Pair    | 485.64     | 485.64     | 485.64     |   0.0 | 68.99
Bond    | 45.687     | 45.687     | 45.687     |   0.0 |  6.49
Neigh   | 79.921     | 79.921     | 79.921     |   0.0 | 11.35
Comm    | 13.122     | 13.122     | 13.122     |   0.0 |  1.86
Output  | 0.32664    | 0.32664    | 0.32664    |   0.0 |  0.05
Modify  | 77.936     | 77.936     | 77.936     |   0.0 | 11.07
Other   |            | 1.322      |            |       |  0.19

Nlocal:           2808 ave        2808 max        2808 min
Histogram: 1 0 0 0 0 0 0 0 0 0
Nghost:          14325 ave       14325 max       14325 min
Histogram: 1 0 0 0 0 0 0 0 0 0
Neighs:    1.04772e+06 ave 1.04772e+06 max 1.04772e+06 min
Histogram: 1 0 0 0 0 0 0 0 0 0

Total # of neighbors = 1047724
Ave neighs/atom = 373.12108
Ave special neighs/atom = 11.65812
Neighbor list builds = 4866
Dangerous builds = 0
unfix 1
unfix 2
unfix def1

print "All done"nt "All done"
ERROR: Input line quote not followed by white-space (src/input.cpp:513)
Last command: print "All done"nt "All done"
