units			real
dimension		3
processors		* * *
boundary		p p p
atom_style		full
pair_style		lj/cut 10.0
bond_style		harmonic
angle_style 	harmonic
read_data		after_cross_linking_correct.data
Reading data file ...
  orthogonal box = (30.222448 27.307948 30.19145) to (59.884552 56.970052 59.853554)
  1 by 1 by 1 MPI processor grid
  reading atoms ...
  2988 atoms
  reading velocities ...
  2988 velocities
  scanning bonds ...
  4 = max bonds/atom
  scanning angles ...
  6 = max angles/atom
  reading bonds ...
  3044 bonds
  reading angles ...
  5800 angles
Finding 1-2 1-3 1-4 neighbors ...
  special bond factors lj:    0        0        0       
  special bond factors coul:  0        0        0       
     4 = max # of 1-2 neighbors
     7 = max # of 1-3 neighbors
    16 = max # of 1-4 neighbors
    20 = max # of special neighbors
  special bonds CPU = 0.004 seconds
  read_data CPU = 0.065 seconds
variable simname index ssc_linked
variable tmp equal "lx"
variable L0 equal ${tmp}
variable L0 equal 29.6621039368179
variable strain equal "(lx - v_L0)/v_L0"
variable p1 equal "v_strain"
variable p2 equal "-pxx/10000*1.01325"
variable p3 equal "-pyy/10000*1.01325"
variable p4 equal "-pzz/10000*1.01325"
variable p5 equal "lx"
variable p6 equal "ly"
variable p7 equal "lz"
variable p8 equal "temp"
fix		1 all npt temp 300 300 50 y 0 0 1000 z 0 0 1000 drag 2
fix		2 all deform 1 x erate 1e-5 units box remap x
fix        3 all ave/time 1 100 100 v_p2 v_p3
variable avg_stress equal f_3[1]
fix def1 all print 100 "${p1} ${p2} ${avg_stress}" file ${simname}.txt screen no
fix def1 all print 100 "${p1} ${p2} ${avg_stress}" file ssc_linked.txt screen no
thermo_style	custom step temp v_p2 v_avg_stress lx v_strain pxx
thermo          100
timestep	1
run		100000
Generated 153 of 153 mixed pair_coeff terms from geometric mixing rule
Last active /omp style is angle_style harmonic/omp
Neighbor list info ...
  update every 1 steps, delay 10 steps, check yes
  max neighbors/atom: 2000, page size: 100000
  master list distance cutoff = 12
  ghost atom cutoff = 12
  binsize = 6, bins = 5 5 5
  1 neighbor lists, perpetual/occasional/extra = 1 0 0
  (1) pair lj/cut/omp, perpetual
      attributes: half, newton on, omp
      pair build: half/bin/newton/omp
      stencil: half/bin/3d
      bin: standard
WARNING: Inconsistent image flags (src/domain.cpp:819)
Per MPI rank memory allocation (min/avg/max) = 27.41 | 27.41 | 27.41 Mbytes
   Step          Temp           v_p2       v_avg_stress        Lx          v_strain         Pxx      
         0   296.64116     -0.28038351     0              29.662104      5.9886407e-16  2767.1701    
       100   303.21895     -0.045028945    0.11365209     29.691766      0.001          444.40113    
       200   298.89769     -0.046751176   -0.051917949    29.721428      0.002          461.39823    
       300   301.23604     -0.089798131    0.0072197323   29.75109       0.003          886.23865    
       400   294.75543      0.4495524      0.025166253    29.780752      0.004         -4436.7372    
       500   292.12929      0.25146972     0.095205855    29.810414      0.005         -2481.8132    
       600   301.38282      0.039908797    0.018729008    29.840077      0.006         -393.86921    
       700   297.73279      0.059312261   -0.014958646    29.869739      0.007         -585.36651    
       800   301.90348      0.50847062     0.022956152    29.899401      0.008         -5018.2149    
       900   298.47229      0.21290281     0.13347159     29.929063      0.009         -2101.1874    
      1000   300.49338      0.43564222     0.17340114     29.958725      0.01          -4299.4545    
      1100   299.16162     -0.044654816    0.034317914    29.988387      0.011          440.70877    
      1200   297.19289      0.37015873     0.1073648      30.018049      0.012         -3653.1827    
      1300   299.87929      0.022052885    0.038350906    30.047711      0.013         -217.64505    
      1400   297.49443      0.088660253    0.085959264    30.077373      0.014         -875.00867    
      1500   298.86753      0.02146683     0.15835866     30.107035      0.015         -211.86114    
      1600   300.14731     -0.16639711     0.080580497    30.136698      0.016          1642.2118    
      1700   300.73536      0.066655961   -0.028152448    30.16636       0.017         -657.84319    
      1800   297.19619      0.36115987     0.086829371    30.196022      0.018         -3564.3707    
      1900   301.06625      0.3110751      0.23955554     30.225684      0.019         -3070.0725    
      2000   297.96247      0.28600551     0.081225162    30.255346      0.02          -2822.6549    
      2100   297.79438      0.22072108     0.21524459     30.285008      0.021         -2178.3477    
      2200   299.14388      0.11352079     0.071747096    30.31467       0.022         -1120.3631    
      2300   303.43384      0.012152275    0.064293357    30.344332      0.023         -119.93363    
      2400   298.37843      0.19874043     0.075391998    30.373994      0.024         -1961.4156    
      2500   296.84198      0.33936019     0.16338315     30.403657      0.025         -3349.2246    
      2600   302.75303      0.095493899    0.18667807     30.433319      0.026         -942.4515     
      2700   297.60177      0.020126875    0.1944707      30.462981      0.027         -198.63681    
      2800   293.65148      0.34654291     0.18194034     30.492643      0.028         -3420.1126    
      2900   306.2658       0.46536895     0.25733706     30.522305      0.029         -4592.8344    
      3000   296.18015      0.22146422     0.13522183     30.551967      0.03          -2185.6819    
      3100   298.74141     -0.109309       0.13002946     30.581629      0.031          1078.7959    
      3200   296.71559      0.084402534    0.098784396    30.611291      0.032         -832.98825    
      3300   298.97772      0.44248901     0.27446832     30.640953      0.033         -4367.027     
      3400   300.43281      0.3127656      0.16950771     30.670615      0.034         -3086.7564    
      3500   300.68128      0.20188868     0.097236055    30.700278      0.035         -1992.4864    
      3600   305.52481      0.40769406     0.21659853     30.72994       0.036         -4023.6276    
      3700   301.38576     -0.10397759     0.12270105     30.759602      0.037          1026.1791    
      3800   306.10816      0.41606295     0.23746965     30.789264      0.038         -4106.222     
      3900   298.45305      0.30470486     0.17269534     30.818926      0.039         -3007.2032    
      4000   294.86988      0.33222877     0.12043448     30.848588      0.04          -3278.843     
      4100   298.49015     -0.061964025    0.11514062     30.87825       0.041          611.53738    
      4200   299.05492     -0.03191018     0.21045247     30.907912      0.042          314.92899    
      4300   299.18138      0.4169022      0.30708581     30.937574      0.043         -4114.5049    
      4400   300.25675      0.051230628    0.16086971     30.967237      0.044         -505.60699    
      4500   301.85874      0.43246182     0.18274414     30.996899      0.045         -4268.0663    
      4600   298.52201      0.24777645     0.19754043     31.026561      0.046         -2445.3634    
      4700   302.86487      0.40814467     0.1480714      31.056223      0.047         -4028.0747    
      4800   299.9179       0.16581139     0.35389359     31.085885      0.048         -1636.4312    
      4900   299.97657      0.029281636    0.12287621     31.115547      0.049         -288.98728    
      5000   296.2248       0.48101822     0.17600902     31.145209      0.05          -4747.2807    
      5100   300.05178      0.31134857     0.16907002     31.174871      0.051         -3072.7715    
      5200   295.48418      0.28342467     0.2072324      31.204533      0.052         -2797.1841    
      5300   299.75872      0.3898501      0.18410837     31.234195      0.053         -3847.5214    
      5400   300.07626      0.44940698     0.21859351     31.263858      0.054         -4435.302     
      5500   301.31888      0.42390575     0.30493855     31.29352       0.055         -4183.6245    
      5600   301.38503      0.18123371     0.31159176     31.323182      0.056         -1788.6377    
      5700   291.76148      0.36314955     0.33165759     31.352844      0.057         -3584.0074    
      5800   301.55428      0.014084498    0.2007086      31.382506      0.058         -139.00318    
      5900   303.36369      0.11083122     0.2958897      31.412168      0.059         -1093.8191    
      6000   299.19719     -0.036285879    0.18240346     31.44183       0.06           358.11378    
      6100   299.55378      0.32788134     0.34410595     31.471492      0.061         -3235.9372    
      6200   300.38277      0.11930232     0.19117291     31.501154      0.062         -1177.4224    
      6300   300.42547     -0.219595       0.19392136     31.530816      0.063          2167.2341    
      6400   304.00914      0.21712187     0.1496073      31.560479      0.064         -2142.8263    
      6500   297.81902      0.39822509     0.33973846     31.590141      0.065         -3930.176     
      6600   300.07471      0.24312053     0.29784762     31.619803      0.066         -2399.4131    
      6700   300.50451      0.13364093     0.23345339     31.649465      0.067         -1318.9334    
      6800   295.56811      0.5238995      0.24167921     31.679127      0.068         -5170.486     
      6900   299.70565      0.55915369     0.24719785     31.708789      0.069         -5518.4179    
      7000   300.0766       0.35731458     0.24849236     31.738451      0.07          -3526.4208    
      7100   297.857        0.38528482     0.27729801     31.768113      0.071         -3802.4655    
      7200   298.90053      0.54301079     0.3835221      31.797775      0.072         -5359.0998    
      7300   299.36193      0.24604571     0.28875093     31.827438      0.073         -2428.2824    
      7400   293.39853      0.0055517328   0.26540371     31.8571        0.074         -54.791342    
      7500   295.76328      0.078996224    0.33299658     31.886762      0.075         -779.63212    
      7600   301.45478      0.081530206    0.25114536     31.916424      0.076         -804.64057    
      7700   299.41287      0.16508117     0.098301004    31.946086      0.077         -1629.2245    
      7800   303.72316      0.6886073      0.32811194     31.975748      0.078         -6796.0257    
      7900   294.63476      0.88792295     0.2785016      32.00541       0.079         -8763.1182    
      8000   297.76123      0.59769952     0.23161067     32.035072      0.08          -5898.8356    
      8100   294.90737      0.39003824     0.26993032     32.064734      0.081         -3849.3781    
      8200   298.94032      0.26697859     0.35132946     32.094396      0.082         -2634.8739    
      8300   302.09988      0.4195201      0.36520525     32.124059      0.083         -4140.3414    
      8400   305.40323      0.54939105     0.36590623     32.153721      0.084         -5422.0681    
      8500   297.62499      0.24531534     0.25168879     32.183383      0.085         -2421.0742    
      8600   299.37845      0.16412772     0.33281031     32.213045      0.086         -1619.8146    
      8700   302.87608      0.41951799     0.30040063     32.242707      0.087         -4140.3207    
      8800   302.45626      0.29892195     0.26717983     32.272369      0.088         -2950.1302    
      8900   296.07363      0.29716158     0.32370193     32.302031      0.089         -2932.7568    
      9000   301.66062      0.088814195    0.31949798     32.331693      0.09          -876.52796    
      9100   300.7935       0.37687793     0.33534804     32.361355      0.091         -3719.496     
      9200   302.19906      0.32714944     0.26440181     32.391017      0.092         -3228.7139    
      9300   301.90427      0.3500179      0.30593809     32.42068       0.093         -3454.4081    
      9400   296.19554      0.139013       0.30908345     32.450342      0.094         -1371.9516    
      9500   296.89648      0.37480846     0.37397808     32.480004      0.095         -3699.0719    
      9600   301.7472       0.34335774     0.38264299     32.509666      0.096         -3388.6775    
      9700   302.15934      0.23159888     0.34988406     32.539328      0.097         -2285.7033    
      9800   294.81902      0.38247493     0.29352621     32.56899       0.098         -3774.734     
      9900   301.03764      0.70468869     0.37322962     32.598652      0.099         -6954.7367    
     10000   306.39222      0.29140886     0.3109307      32.628314      0.1           -2875.9818    
     10100   300.22117      0.036499306    0.37625509     32.657976      0.101         -360.22014    
     10200   303.67359      0.17353423     0.29653348     32.687639      0.102         -1712.6497    
     10300   300.64016     -0.1411417      0.13408364     32.717301      0.103          1392.9603    
     10400   303.59381      0.29529714     0.19936656     32.746963      0.104         -2914.3562    
     10500   299.84742     -0.08514051     0.24206481     32.776625      0.105          840.2715     
     10600   298.06393      0.18260737     0.22441554     32.806287      0.106         -1802.1946    
     10700   300.00339      0.51286614     0.24400099     32.835949      0.107         -5061.5952    
     10800   299.88152      0.38996194     0.33905566     32.865611      0.108         -3848.6251    
     10900   303.2777       0.46825744     0.48089313     32.895273      0.109         -4621.3417    
     11000   298.44331      0.34849027     0.22260557     32.924935      0.11          -3439.3315    
     11100   302.89069      0.45536923     0.33732289     32.954597      0.111         -4494.1449    
     11200   301.72702      0.36857968     0.39708422     32.98426       0.112         -3637.5986    
     11300   302.94819      0.26644264     0.37209797     33.013922      0.113         -2629.5844    
     11400   298.21934      0.27219113     0.25537091     33.043584      0.114         -2686.3176    
     11500   302.01054      0.51804759     0.37556508     33.073246      0.115         -5112.7322    
     11600   301.51092      0.46122972     0.41179045     33.102908      0.116         -4551.9834    
     11700   299.20262      0.013099647    0.22988497     33.13257       0.117         -129.28347    
     11800   303.19195      0.37378834     0.25950887     33.162232      0.118         -3689.0041    
     11900   298.52307      0.2265646      0.27516266     33.191894      0.119         -2236.0188    
     12000   295.92155      0.10407364     0.24228362     33.221556      0.12          -1027.127     
     12100   301.67704      0.2634473      0.33783039     33.251219      0.121         -2600.0227    
     12200   295.37778      0.44529022     0.36824013     33.280881      0.122         -4394.6728    
     12300   299.6412       0.51469017     0.43632107     33.310543      0.123         -5079.5971    
     12400   298.37887      0.31606934     0.35031438     33.340205      0.124         -3119.3618    
     12500   300.59246      0.17680676     0.34229814     33.369867      0.125         -1744.9471    
     12600   293.95597      0.49524294     0.39356968     33.399529      0.126         -4887.6678    
     12700   296.54534      0.2492333      0.44581459     33.429191      0.127         -2459.7414    
     12800   302.87679      0.054226194    0.31538749     33.458853      0.128         -535.17092    
     12900   301.20783      0.062982294    0.36405833     33.488515      0.129         -621.58691    
     13000   300.78577      0.30330095     0.31936275     33.518177      0.13          -2993.3476    
     13100   302.89308      0.20722322     0.44512109     33.54784       0.131         -2045.1342    
     13200   303.529        0.39293659     0.42972401     33.577502      0.132         -3877.9826    
     13300   299.31562      0.42630736     0.40719625     33.607164      0.133         -4207.3265    
     13400   297.33897      0.43620227     0.45418763     33.636826      0.134         -4304.9816    
     13500   298.36332      0.22791467     0.40982328     33.666488      0.135         -2249.3429    
     13600   299.87144      0.13310906     0.36869376     33.69615       0.136         -1313.6843    
     13700   301.32767      0.33516707     0.40872659     33.725812      0.137         -3307.8418    
     13800   302.58579      0.63482239     0.44285087     33.755474      0.138         -6265.2099    
     13900   299.15096      0.3973853      0.41686031     33.785136      0.139         -3921.8879    
     14000   294.9277       0.18522335     0.33035779     33.814798      0.14          -1828.0123    
     14100   309.38295      0.48289284     0.37154054     33.844461      0.141         -4765.7818    
     14200   301.1388       0.277358       0.35491757     33.874123      0.142         -2737.3107    
     14300   296.60152      0.43878817     0.36335332     33.903785      0.143         -4330.5025    
     14400   296.09125      0.51716591     0.39828107     33.933447      0.144         -5104.0307    
     14500   300.09196      0.48339245     0.37385233     33.963109      0.145         -4770.7126    
     14600   299.12554      0.41937015     0.40825381     33.992771      0.146         -4138.8616    
     14700   303.0961       0.56960795     0.46682806     34.022433      0.147         -5621.5934    
     14800   300.22864      0.42483534     0.32007468     34.052095      0.148         -4192.7988    
     14900   299.61826      0.79004174     0.34572031     34.081757      0.149         -7797.1057    
     15000   295.36308      0.78576884     0.45923999     34.11142       0.15          -7754.9355    
     15100   300.58979      0.029568345    0.38258984     34.141082      0.151         -291.81687    
     15200   299.62028      0.35432674     0.30140297     34.170744      0.152         -3496.9331    
     15300   295.61087      0.56735257     0.41559019     34.200406      0.153         -5599.3345    
     15400   297.62341      0.34326425     0.43356652     34.230068      0.154         -3387.7547    
     15500   298.10234      0.54993519     0.44455324     34.25973       0.155         -5427.4383    
     15600   302.62881      0.87649635     0.54719409     34.289392      0.156         -8650.3464    
     15700   301.54351      0.35676028     0.28931394     34.319054      0.157         -3520.9502    
     15800   294.03877      0.58920785     0.40759005     34.348716      0.158         -5815.0293    
     15900   302.79572      0.21287481     0.40791368     34.378378      0.159         -2100.9111    
     16000   303.67795      0.80824597     0.39437621     34.408041      0.16          -7976.7675    
     16100   298.3547       0.20974725     0.36946075     34.437703      0.161         -2070.0444    
     16200   305.04344      0.31134725     0.36897224     34.467365      0.162         -3072.7585    
     16300   293.23616      0.49690283     0.34444285     34.497027      0.163         -4904.0496    
     16400   298.29089      0.42102902     0.36984223     34.526689      0.164         -4155.2334    
     16500   302.965        0.35887476     0.48902695     34.556351      0.165         -3541.8185    
     16600   298.45352      0.53380695     0.40860657     34.586013      0.166         -5268.2649    
     16700   297.2669       0.3711626      0.47939653     34.615675      0.167         -3663.09      
     16800   298.28629      0.21913083     0.31130921     34.645337      0.168         -2162.6531    
     16900   299.88496      0.64171662     0.39569251     34.675         0.169         -6333.2506    
     17000   297.5376       0.2164417      0.52937212     34.704662      0.17          -2136.1135    
     17100   297.41963      0.4119733      0.38913145     34.734324      0.171         -4065.8604    
     17200   299.85458      0.53035958     0.51357893     34.763986      0.172         -5234.2421    
     17300   308.34319     -0.047768133    0.36887383     34.793648      0.173          471.43482    
     17400   300.79391      0.5435205      0.34781732     34.82331       0.174         -5364.1303    
     17500   294.84         0.3222403      0.43359233     34.852972      0.175         -3180.2645    
     17600   301.15389      0.28837183     0.29862703     34.882634      0.176         -2846.0087    
     17700   301.015        0.71495864     0.46403286     34.912296      0.177         -7056.0931    
     17800   298.7415       0.21881129     0.49262901     34.941958      0.178         -2159.4996    
     17900   307.5216       0.4974175      0.49633319     34.971621      0.179         -4909.1291    
     18000   300.24341      0.28067884     0.44819254     35.001283      0.18          -2770.0848    
     18100   296.42005      0.25011583     0.32461752     35.030945      0.181         -2468.4514    
     18200   302.08995      0.34439634     0.4285681      35.060607      0.182         -3398.9276    
     18300   300.98713      0.42072148     0.48178882     35.090269      0.183         -4152.1982    
     18400   298.84997      0.94007831     0.43649912     35.119931      0.184         -9277.8516    
     18500   297.69978      0.3768494      0.53341117     35.149593      0.185         -3719.2145    
     18600   300.97044      0.37960178     0.36825223     35.179255      0.186         -3746.3783    
     18700   299.47188      0.78086445     0.52915923     35.208917      0.187         -7706.533     
     18800   297.81734      0.60846442     0.54360886     35.238579      0.188         -6005.077     
     18900   301.65093      0.37915731     0.42964947     35.268242      0.189         -3741.9917    
     19000   299.71819      0.46863035     0.61740078     35.297904      0.19          -4625.022     
     19100   299.73402      0.46432361     0.56968884     35.327566      0.191         -4582.5177    
     19200   302.23672      0.57123622     0.49956356     35.357228      0.192         -5637.6631    
     19300   301.87257      0.58299459     0.57547839     35.38689       0.193         -5753.7093    
     19400   302.70987      0.55844024     0.54623624     35.416552      0.194         -5511.3767    
     19500   288.58139      0.68178104     0.53072447     35.446214      0.195         -6728.6557    
     19600   301.6194       0.63311123     0.45607147     35.475876      0.196         -6248.322     
     19700   310.71347      0.50149496     0.46442064     35.505538      0.197         -4949.3705    
     19800   297.0375       0.69182059     0.49484172     35.535201      0.198         -6827.7384    
     19900   297.56473      0.64634695     0.54879767     35.564863      0.199         -6378.9485    
     20000   302.77229      0.69674232     0.55825242     35.594525      0.2           -6876.312     
     20100   294.52813      0.68806756     0.56728486     35.624187      0.201         -6790.6989    
     20200   298.88499      0.47841886     0.52595665     35.653849      0.202         -4721.6271    
     20300   302.39974      0.76879365     0.46496521     35.683511      0.203         -7587.4034    
     20400   298.83262      0.52252254     0.58113739     35.713173      0.204         -5156.8965    
     20500   294.87802      0.53251186     0.45244037     35.742835      0.205         -5255.4834    
     20600   296.29099      0.57058187     0.57714177     35.772497      0.206         -5631.2053    
     20700   296.57248      0.62922941     0.64768777     35.802159      0.207         -6210.0114    
     20800   298.56724      0.40163917     0.58863955     35.831822      0.208         -3963.8704    
     20900   298.67197      0.63963476     0.47064504     35.861484      0.209         -6312.7043    
     21000   299.65276      0.53382788     0.57237705     35.891146      0.21          -5268.4716    
     21100   299.3264       0.40160148     0.52331012     35.920808      0.211         -3963.4985    
     21200   304.26834      0.61530454     0.51017212     35.95047       0.212         -6072.5836    
     21300   298.38334      0.72143707     0.61488313     35.980132      0.213         -7120.0303    
     21400   298.91964      0.42589173     0.62193137     36.009794      0.214         -4203.2246    
     21500   299.35138      0.70849882     0.53677761     36.039456      0.215         -6992.3397    
     21600   295.38037      0.71358237     0.63588783     36.069118      0.216         -7042.5104    
     21700   294.36728      0.58671931     0.51343556     36.09878       0.217         -5790.4694    
     21800   303.5422       0.6987292      0.54086515     36.128443      0.218         -6895.9211    
     21900   301.49362      0.27522821     0.66339528     36.158105      0.219         -2716.2913    
     22000   302.93954      0.39669939     0.65748029     36.187767      0.22          -3915.1186    
     22100   293.56731      0.39557487     0.57262286     36.217429      0.221         -3904.0204    
     22200   301.1644       0.74904335     0.57734323     36.247091      0.222         -7392.4831    
     22300   297.40788      0.67493208     0.60542416     36.276753      0.223         -6661.0617    
     22400   297.02254      0.77816637     0.65271315     36.306415      0.224         -7679.905     
     22500   300.16918      0.43653727     0.63233419     36.336077      0.225         -4308.2878    
     22600   301.09508      0.54927162     0.52975645     36.365739      0.226         -5420.8894    
     22700   296.09193      0.37145277     0.53951998     36.395402      0.227         -3665.9538    
     22800   300.49777      0.10830332     0.47994132     36.425064      0.228         -1068.8707    
     22900   297.80811      0.46952842     0.57732911     36.454726      0.229         -4633.8852    
     23000   300.64023      0.62305916     0.62898278     36.484388      0.23          -6149.1158    
     23100   300.81307      0.97472635     0.69838876     36.51405       0.231         -9619.8011    
     23200   296.38911      0.94511093     0.52083552     36.543712      0.232         -9327.5197    
     23300   296.73163      0.90200214     0.69894356     36.573374      0.233         -8902.069     
     23400   300.67256      0.54286868     0.57172511     36.603036      0.234         -5357.6973    
     23500   302.29315      0.69130935     0.62881522     36.632698      0.235         -6822.6928    
     23600   300.42397      0.85905173     0.63873479     36.66236       0.236         -8478.1814    
     23700   296.80953      0.63756277     0.54842229     36.692023      0.237         -6292.2553    
     23800   299.97918      0.50911875     0.410331       36.721685      0.238         -5024.6114    
     23900   299.53655      1.111865       0.71025197     36.751347      0.239         -10973.254    
     24000   299.46308      0.84780081     0.5400974      36.781009      0.24          -8367.1434    
     24100   300.98523      0.66344814     0.69102119     36.810671      0.241         -6547.724     
     24200   303.61083      0.22027008     0.65084331     36.840333      0.242         -2173.8966    
     24300   309.08391      0.21865291     0.66645963     36.869995      0.243         -2157.9365    
     24400   293.35298      0.37520662     0.51930663     36.899657      0.244         -3703.0014    
     24500   297.20394      0.66934929     0.64439636     36.929319      0.245         -6605.9639    
     24600   297.55176      0.5795795      0.6328716      36.958982      0.246         -5720.005     
     24700   303.64075      0.32357905     0.68754678     36.988644      0.247         -3193.4769    
     24800   299.34055      0.39473323     0.58535773     37.018306      0.248         -3895.7141    
     24900   297.56905      0.76701121     0.5958141      37.047968      0.249         -7569.8121    
     25000   305.5886       0.71353014     0.66318752     37.07763       0.25          -7041.9949    
     25100   304.02719      0.57066907     0.69870699     37.107292      0.251         -5632.0658    
     25200   301.20513      0.5554871      0.62473676     37.136954      0.252         -5482.2314    
     25300   300.29665      0.85430081     0.6735797      37.166616      0.253         -8431.2935    
     25400   308.53675      0.35577145     0.71935091     37.196278      0.254         -3511.1912    
     25500   300.42667      0.6095001      0.7051013      37.22594       0.255         -6015.2983    
     25600   298.18925      0.68115116     0.6591627      37.255603      0.256         -6722.4393    
     25700   296.90878      0.68498707     0.63946672     37.285265      0.257         -6760.2968    
     25800   300.93015      0.81619462     0.6506678      37.314927      0.258         -8055.2146    
     25900   306.86778      0.37977871     0.70254582     37.344589      0.259         -3748.1244    
     26000   304.77044      0.47109544     0.58646788     37.374251      0.26          -4649.3505    
     26100   294.40944      0.54275974     0.66801513     37.403913      0.261         -5356.6221    
     26200   301.99906      0.95203994     0.80080385     37.433575      0.262         -9395.9037    
     26300   304.35028      0.74105018     0.86318789     37.463237      0.263         -7313.5966    
     26400   295.52144      0.66988895     0.64656226     37.492899      0.264         -6611.2899    
     26500   297.84426      0.85881786     0.77675856     37.522561      0.265         -8475.8733    
     26600   297.29758      1.1208111      0.6426302      37.552224      0.266         -11061.545    
     26700   302.27054      0.75025483     0.71633154     37.581886      0.267         -7404.4395    
     26800   305.26054      0.7023249      0.83748005     37.611548      0.268         -6931.4079    
     26900   299.51079      0.77374648     0.85325794     37.64121       0.269         -7636.2841    
     27000   298.30931      0.42155155     0.7715359      37.670872      0.27          -4160.3903    
     27100   297.85832      0.38610241     0.74854616     37.700534      0.271         -3810.5345    
     27200   301.14728      0.72763189     0.77229632     37.730196      0.272         -7181.1685    
     27300   291.60382      0.56142009     0.76222431     37.759858      0.273         -5540.7854    
     27400   303.96668      0.67914794     0.70485519     37.78952       0.274         -6702.669     
     27500   299.45578      0.66727972     0.7646035      37.819183      0.275         -6585.5388    
     27600   302.27493      0.65521453     0.74717836     37.848845      0.276         -6466.4647    
     27700   304.27275      1.0548216      0.82109798     37.878507      0.277         -10410.279    
     27800   303.88557      0.72387075     0.77176275     37.908169      0.278         -7144.0488    
     27900   301.01275      0.78208581     0.74344738     37.937831      0.279         -7718.5868    
     28000   300.868        0.67042176     0.76482994     37.967493      0.28          -6616.5483    
     28100   295.15631      0.87926708     0.779445       37.997155      0.281         -8677.6914    
     28200   306.03349      0.8291785      0.7145413      38.026817      0.282         -8183.3555    
     28300   303.4724       0.55840508     0.73230718     38.056479      0.283         -5511.0296    
     28400   299.02589      1.1451742      0.76187679     38.086141      0.284         -11301.991    
     28500   298.10869      0.92010745     0.84876744     38.115804      0.285         -9080.7545    
     28600   298.41532      0.68292469     0.74978561     38.145466      0.286         -6739.9426    
     28700   298.1528       0.74602958     0.5932221      38.175128      0.287         -7362.7395    
     28800   301.16254      0.686005       0.66646953     38.20479       0.288         -6770.3429    
     28900   297.845        0.6882978      0.700701       38.234452      0.289         -6792.9712    
     29000   298.98765      0.89688071     0.83824385     38.264114      0.29          -8851.5244    
     29100   304.93528      0.43580357     0.8187955      38.293776      0.291         -4301.0469    
     29200   296.87672      0.46797017     0.81508774     38.323438      0.292         -4618.5065    
     29300   303.63449      0.67851426     0.72771006     38.3531        0.293         -6696.4151    
     29400   296.86327      0.43327626     0.74173171     38.382762      0.294         -4276.1042    
     29500   300.3437       0.86062903     0.70012562     38.412425      0.295         -8493.7482    
     29600   299.28805      0.70261508     0.7243483      38.442087      0.296         -6934.2717    
     29700   301.36385      0.90187052     0.91301583     38.471749      0.297         -8900.77      
     29800   301.20491      0.86224336     0.73521966     38.501411      0.298         -8509.6804    
     29900   300.18461      0.64896222     0.7557263      38.531073      0.299         -6404.7591    
     30000   305.09856      0.72959475     0.70217901     38.560735      0.3           -7200.5403    
     30100   295.5983       0.72592736     0.71039225     38.590397      0.301         -7164.346     
     30200   299.97852      0.8908457      0.70783949     38.620059      0.302         -8791.9635    
     30300   306.08309      0.57933363     0.84780458     38.649721      0.303         -5717.5784    
     30400   304.22441      0.79863623     0.71765713     38.679384      0.304         -7881.9268    
     30500   303.38528      1.002505       0.77264865     38.709046      0.305         -9893.9549    
     30600   300.12918      0.63295617     0.67102065     38.738708      0.306         -6246.7917    
     30700   301.7016       0.94763281     0.75264362     38.76837       0.307         -9352.4087    
     30800   299.70792      0.74673901     0.79979901     38.798032      0.308         -7369.741     
     30900   298.7428       0.66093776     0.84357013     38.827694      0.309         -6522.9485    
     31000   305.13212      0.79640658     0.81844263     38.857356      0.31          -7859.9218    
     31100   302.53149      0.54786184     0.76028602     38.887018      0.311         -5406.976     
     31200   299.9246       0.90934938     0.80873334     38.91668       0.312         -8974.5806    
     31300   296.94944      0.89564291     0.89113479     38.946342      0.313         -8839.3083    
     31400   302.3694       0.79905805     0.77108064     38.976005      0.314         -7886.0898    
     31500   302.94985      0.95728205     0.8446639      39.005667      0.315         -9447.6393    
     31600   300.8783       0.83660592     0.87457339     39.035329      0.316         -8256.6584    
     31700   298.96949      1.0035514      0.89539464     39.064991      0.317         -9904.2825    
     31800   303.14335      0.92436261     0.8857156      39.094653      0.318         -9122.7496    
     31900   300.64181      1.0188105      0.88042636     39.124315      0.319         -10054.878    
     32000   293.70507      0.52651177     0.74950849     39.153977      0.32          -5196.2671    
     32100   298.32132      0.69295867     0.75436467     39.183639      0.321         -6838.9703    
     32200   305.26962      0.96189771     0.83047668     39.213301      0.322         -9493.1923    
     32300   299.54316      0.52383735     0.91158647     39.242964      0.323         -5169.8727    
     32400   298.88052      0.74112201     0.80343556     39.272626      0.324         -7314.3056    
     32500   298.8985       0.87760799     0.79814213     39.302288      0.325         -8661.3175    
     32600   302.84776      0.42492164     0.84124683     39.33195       0.326         -4193.6505    
     32700   298.47178      0.90561551     0.86645959     39.361612      0.327         -8937.7302    
     32800   294.89201      0.914169       0.8350371      39.391274      0.328         -9022.1466    
     32900   304.33864      0.78942217     0.96236277     39.420936      0.329         -7790.9911    
     33000   297.75676      0.7145014      0.92853683     39.450598      0.33          -7051.5806    
     33100   299.40788      1.1364929      0.88658209     39.48026       0.331         -11216.313    
     33200   301.14026      0.88696334     0.93573984     39.509922      0.332         -8753.6476    
     33300   299.56074      0.91783765     0.93687292     39.539585      0.333         -9058.3533    
     33400   300.55043      0.79748993     0.86704779     39.569247      0.334         -7870.6136    
     33500   297.89002      1.0002007      0.91956751     39.598909      0.335         -9871.213     
     33600   303.26667      0.81793777     0.87930052     39.628571      0.336         -8072.4181    
     33700   298.14105      0.81410217     0.88517081     39.658233      0.337         -8034.5637    
     33800   303.46702      0.98183531     0.91607145     39.687895      0.338         -9689.9611    
     33900   296.90863      0.89487118     1.0013549      39.717557      0.339         -8831.6919    
     34000   302.82167      0.90801403     1.0068767      39.747219      0.34          -8961.4017    
     34100   293.82741      0.9461085      0.91104673     39.776881      0.341         -9337.3649    
     34200   299.17692      1.0657174      0.88211915     39.806543      0.342         -10517.813    
     34300   295.34245      1.1048403      0.97809514     39.836206      0.343         -10903.926    
     34400   300.19068      1.0095826      0.96078011     39.865868      0.344         -9963.8056    
     34500   298.25099      0.67299496     0.92681497     39.89553       0.345         -6641.9438    
     34600   299.3327       0.94661049     0.92366732     39.925192      0.346         -9342.3192    
     34700   298.29604      0.82985975     1.0424322      39.954854      0.347         -8190.0789    
     34800   298.42118      0.8463564      0.90508838     39.984516      0.348         -8352.8882    
     34900   299.09809      0.91343434     0.90850452     40.014178      0.349         -9014.896     
     35000   297.85365      1.0919306      1.0544049      40.04384       0.35          -10776.518    
     35100   296.54097      1.1071705      0.9880406      40.073502      0.351         -10926.923    
     35200   300.52037      1.1109779      1.0062231      40.103165      0.352         -10964.5      
     35300   302.52876      0.96636199     0.98530097     40.132827      0.353         -9537.2513    
     35400   299.82764      1.2047825      1.0991555      40.162489      0.354         -11890.279    
     35500   296.80282      0.84134918     0.99692136     40.192151      0.355         -8303.4708    
     35600   297.68867      1.1145897      0.93123261     40.221813      0.356         -11000.145    
     35700   301.29962      1.0567564      0.89387752     40.251475      0.357         -10429.375    
     35800   308.7236       0.9647747      1.0711989      40.281137      0.358         -9521.586     
     35900   297.36684      1.0385933      1.0938354      40.310799      0.359         -10250.119    
     36000   297.0559       1.0375762      0.96506412     40.340461      0.36          -10240.081    
     36100   294.72313      1.1166143      1.0486032      40.370123      0.361         -11020.126    
     36200   303.90128      0.85892333     0.97450092     40.399786      0.362         -8476.9142    
     36300   294.12407      0.99327602     0.9736274      40.429448      0.363         -9802.8721    
     36400   297.36144      0.96176631     1.0032159      40.45911       0.364         -9491.8955    
     36500   307.83418      1.3840201      1.1269335      40.488772      0.365         -13659.216    
     36600   299.2077       0.88948801     1.0402823      40.518434      0.366         -8778.5641    
     36700   294.16181      0.9669002      1.083574       40.548096      0.367         -9542.563     
     36800   299.28278      0.71545606     1.1326716      40.577758      0.368         -7061.0023    
     36900   298.77306      1.2094161      1.047919       40.60742       0.369         -11936.009    
     37000   295.28505      0.92408358     1.0747342      40.637082      0.37          -9119.9958    
     37100   302.37324      1.0613553      0.98071829     40.666744      0.371         -10474.762    
     37200   301.83782      1.1572856      1.1025758      40.696407      0.372         -11421.521    
     37300   301.08927      1.0022234      1.0511764      40.726069      0.373         -9891.1755    
     37400   301.59234      1.1048554      1.1424601      40.755731      0.374         -10904.075    
     37500   299.46252      1.1945604      1.2025018      40.785393      0.375         -11789.395    
     37600   305.31225      0.88371939     1.1882015      40.815055      0.376         -8721.6323    
     37700   304.89135      0.91091873     1.0851238      40.844717      0.377         -8990.0689    
     37800   303.43324      1.2429993      1.2259386      40.874379      0.378         -12267.449    
     37900   296.67249      0.87100935     1.1615151      40.904041      0.379         -8596.1939    
     38000   290.23022      0.94928101     1.093199       40.933703      0.38          -9368.6751    
     38100   300.02536      1.1441906      1.0494607      40.963366      0.381         -11292.283    
     38200   299.52948      1.4150735      1.2445473      40.993028      0.382         -13965.69     
     38300   297.21324      1.5536216      1.2436967      41.02269       0.383         -15333.053    
     38400   300.55004      0.9057334      1.1973597      41.052352      0.384         -8938.8936    
     38500   297.70485      1.5035138      1.1473451      41.082014      0.385         -14838.527    
     38600   295.90685      1.0898652      1.1809465      41.111676      0.386         -10756.133    
     38700   300.24908      1.1077763      1.2345003      41.141338      0.387         -10932.902    
     38800   299.8208       1.2191784      1.3068975      41.171         0.388         -12032.355    
     38900   303.80571      1.0843646      1.2090477      41.200662      0.389         -10701.847    
     39000   302.57481      0.93608257     1.1721062      41.230324      0.39          -9238.4166    
     39100   298.31404      1.3957537      1.213899       41.259987      0.391         -13775.018    
     39200   301.28655      1.3826332      1.2597796      41.289649      0.392         -13645.529    
     39300   300.71805      1.5354267      1.214593       41.319311      0.393         -15153.483    
     39400   301.71138      1.2875063      1.3276048      41.348973      0.394         -12706.699    
     39500   299.81276      1.0541508      1.1957748      41.378635      0.395         -10403.66     
     39600   306.18974      1.4925121      1.2339608      41.408297      0.396         -14729.95     
     39700   300.54945      1.2297925      1.2995878      41.437959      0.397         -12137.108    
     39800   296.10396      1.2892542      1.1518186      41.467621      0.398         -12723.949    
     39900   292.19524      1.6681404      1.2821584      41.497283      0.399         -16463.266    
     40000   299.36077      1.5832631      1.4128948      41.526946      0.4           -15625.592    
     40100   298.35393      1.3068311      1.2180835      41.556608      0.401         -12897.42     
     40200   298.66992      1.5509342      1.3017556      41.58627       0.402         -15306.531    
     40300   299.30585      1.4371084      1.3521912      41.615932      0.403         -14183.157    
     40400   297.39084      1.5731981      1.3061495      41.645594      0.404         -15526.258    
     40500   302.50788      1.3905827      1.2969152      41.675256      0.405         -13723.984    
     40600   299.04102      1.6729814      1.3174047      41.704918      0.406         -16511.042    
     40700   295.21653      1.52957        1.4853773      41.73458       0.407         -15095.682    
     40800   309.32723      1.5004682      1.364266       41.764242      0.408         -14808.469    
     40900   306.07594      1.3885096      1.442949       41.793904      0.409         -13703.524    
     41000   303.47807      1.3253938      1.3883577      41.823567      0.41          -13080.62     
     41100   298.9205       1.5536048      1.4398052      41.853229      0.411         -15332.888    
     41200   299.15273      1.1651094      1.5493961      41.882891      0.412         -11498.735    
     41300   297.17772      1.2932589      1.4165549      41.912553      0.413         -12763.473    
     41400   299.54935      1.5394371      1.4904597      41.942215      0.414         -15193.063    
     41500   302.77735      1.4318316      1.5161757      41.971877      0.415         -14131.079    
     41600   298.08177      1.6648123      1.5088075      42.001539      0.416         -16430.42     
     41700   300.70923      1.5489508      1.485081       42.031201      0.417         -15286.956    
     41800   297.03354      1.3791768      1.4757445      42.060863      0.418         -13611.417    
     41900   296.93407      1.5166084      1.6061075      42.090525      0.419         -14967.761    
     42000   301.18646      1.6322365      1.4806661      42.120188      0.42          -16108.921    
     42100   287.95255      1.5980863      1.4527067      42.14985       0.421         -15771.886    
     42200   298.94937      1.7534873      1.5312599      42.179512      0.422         -17305.574    
     42300   293.22756      1.6758616      1.479569       42.209174      0.423         -16539.468    
     42400   298.8631       1.4596455      1.551351       42.238836      0.424         -14405.581    
     42500   301.64282      1.4544746      1.5452871      42.268498      0.425         -14354.549    
     42600   302.89338      1.5134914      1.5921316      42.29816       0.426         -14936.999    
     42700   299.63222      1.791485       1.5727444      42.327822      0.427         -17680.582    
     42800   300.71225      1.5204102      1.5621719      42.357484      0.428         -15005.282    
     42900   303.43429      2.0387969      1.6501171      42.387147      0.429         -20121.361    
     43000   298.30942      1.881627       1.6728754      42.416809      0.43          -18570.215    
     43100   301.87757      1.9641371      1.6655159      42.446471      0.431         -19384.526    
     43200   297.94916      1.5419953      1.5969016      42.476133      0.432         -15218.31     
     43300   302.00461      1.542714       1.6528676      42.505795      0.433         -15225.404    
     43400   300.80729      1.6562499      1.6656779      42.535457      0.434         -16345.916    
     43500   297.04343      1.6717178      1.6887193      42.565119      0.435         -16498.572    
     43600   299.23325      1.626764       1.6567116      42.594781      0.436         -16054.913    
     43700   298.17259      1.7346364      1.610759       42.624443      0.437         -17119.53     
     43800   305.20433      1.5851975      1.669658       42.654105      0.438         -15644.683    
     43900   303.74893      1.8390831      1.5871547      42.683768      0.439         -18150.339    
     44000   303.5643       1.695679       1.7043392      42.71343       0.44          -16735.05     
     44100   299.74087      1.7285065      1.759235       42.743092      0.441         -17059.033    
     44200   296.05433      1.8852792      1.7846492      42.772754      0.442         -18606.259    
     44300   296.28901      1.790611       1.6117961      42.802416      0.443         -17671.956    
     44400   298.79293      1.5808241      1.5984904      42.832078      0.444         -15601.521    
     44500   299.02906      1.6796944      1.718347       42.86174       0.445         -16577.295    
     44600   295.47482      1.7784548      1.6715575      42.891402      0.446         -17551.984    
     44700   302.15234      1.7577391      1.7245577      42.921064      0.447         -17347.536    
     44800   298.97834      1.7097577      1.8097497      42.950727      0.448         -16873.997    
     44900   301.11066      1.5975145      1.7893789      42.980389      0.449         -15766.242    
     45000   300.21943      1.9694793      1.858531       43.010051      0.45          -19437.249    
     45100   298.06183      1.861372       1.7520133      43.039713      0.451         -18370.314    
     45200   299.81951      1.9061802      1.7232327      43.069375      0.452         -18812.536    
     45300   302.91824      1.9821585      1.9143226      43.099037      0.453         -19562.383    
     45400   300.94769      2.1039836      1.7673289      43.128699      0.454         -20764.704    
     45500   295.80195      2.0228182      1.641251       43.158361      0.455         -19963.664    
     45600   307.97265      1.4577322      1.7856391      43.188023      0.456         -14386.698    
     45700   306.38597      1.7383766      1.7329502      43.217685      0.457         -17156.444    
     45800   302.02191      1.8100362      1.832288       43.247348      0.458         -17863.669    
     45900   301.79579      1.8153465      1.7652858      43.27701       0.459         -17916.077    
     46000   297.3202       1.5842548      1.7886354      43.306672      0.46          -15635.379    
     46100   296.32781      1.655737       1.7924961      43.336334      0.461         -16340.854    
     46200   301.62432      1.7015364      1.8345172      43.365996      0.462         -16792.858    
     46300   304.84052      1.7791424      1.7481115      43.395658      0.463         -17558.77     
     46400   307.03189      1.7979143      1.8140437      43.42532       0.464         -17744.034    
     46500   295.65464      2.0195926      1.7582359      43.454982      0.465         -19931.829    
     46600   303.28278      2.0484256      1.8186974      43.484644      0.466         -20216.389    
     46700   300.5819       2.0785322      1.8264932      43.514306      0.467         -20513.518    
     46800   296.85642      1.8326639      1.8411763      43.543969      0.468         -18086.986    
     46900   297.06543      1.8749589      1.8343495      43.573631      0.469         -18504.405    
     47000   298.88443      1.8521596      1.9762797      43.603293      0.47          -18279.394    
     47100   303.51066      2.0216043      2.0115217      43.632955      0.471         -19951.683    
     47200   293.94366      2.1528023      1.8963891      43.662617      0.472         -21246.507    
     47300   296.63888      1.7224856      1.9917871      43.692279      0.473         -16999.611    
     47400   299.36056      2.0693106      2.0661708      43.721941      0.474         -20422.508    
     47500   301.74758      2.0660024      2.080191       43.751603      0.475         -20389.859    
     47600   302.84876      1.8501557      2.0445567      43.781265      0.476         -18259.617    
     47700   301.03244      1.8119347      1.8886         43.810928      0.477         -17882.405    
     47800   297.92352      1.9878671      2.0263824      43.84059       0.478         -19618.723    
     47900   297.02988      2.0499415      2.0187822      43.870252      0.479         -20231.349    
     48000   298.49136      2.1183785      1.9976203      43.899914      0.48          -20906.771    
     48100   302.99055      1.7298732      1.9930388      43.929576      0.481         -17072.521    
     48200   303.02685      2.2230026      1.9110603      43.959238      0.482         -21939.329    
     48300   303.41359      1.950912       1.9940016      43.9889        0.483         -19254.004    
     48400   298.16529      1.9685258      2.005837       44.018562      0.484         -19427.839    
     48500   308.001        2.1532003      2.0478925      44.048224      0.485         -21250.434    
     48600   300.06774      2.04332        2.1027136      44.077886      0.486         -20166        
     48700   294.35407      1.8222122      2.0488417      44.107549      0.487         -17983.836    
     48800   301.88814      1.9334593      2.0793429      44.137211      0.488         -19081.76     
     48900   297.27371      1.7401486      2.0535231      44.166873      0.489         -17173.932    
     49000   303.24823      2.0574209      2.0708457      44.196535      0.49          -20305.166    
     49100   304.08874      2.1445986      2.0550816      44.226197      0.491         -21165.543    
     49200   300.26715      2.0138517      2.0580907      44.255859      0.492         -19875.171    
     49300   297.67804      2.1832629      2.0904486      44.285521      0.493         -21547.13     
     49400   297.66273      2.1381107      2.2572259      44.315183      0.494         -21101.512    
     49500   300.55623      2.0537856      2.0470353      44.344845      0.495         -20269.288    
     49600   293.9822       2.1767234      2.0373548      44.374507      0.496         -21482.59     
     49700   305.55448      2.0523261      2.1458699      44.40417       0.497         -20254.884    
     49800   297.07158      2.4525878      2.0699928      44.433832      0.498         -24205.159    
     49900   295.79703      2.3117922      2.1282605      44.463494      0.499         -22815.615    
     50000   303.95365      2.2173507      2.1448339      44.493156      0.5           -21883.55     
     50100   298.03448      2.0884656      2.1916691      44.522818      0.501         -20611.553    
     50200   298.18931      2.2063186      2.1220587      44.55248       0.502         -21774.672    
     50300   300.34416      1.8822389      2.1312161      44.582142      0.503         -18576.254    
     50400   299.89603      1.9633573      2.1797953      44.611804      0.504         -19376.83     
     50500   296.30642      2.1299314      2.2011904      44.641466      0.505         -21020.789    
     50600   303.15971      2.2717101      2.2929011      44.671129      0.506         -22420.036    
     50700   301.03498      2.4259448      2.2926621      44.700791      0.507         -23942.214    
     50800   298.58982      2.2275539      2.2924166      44.730453      0.508         -21984.247    
     50900   304.20695      2.0960164      2.211882       44.760115      0.509         -20686.074    
     51000   300.12694      2.1747167      2.2857427      44.789777      0.51          -21462.785    
     51100   303.45107      2.3814488      2.3437857      44.819439      0.511         -23503.072    
     51200   301.74978      2.3437797      2.4007829      44.849101      0.512         -23131.307    
     51300   298.70623      2.392525       2.3538093      44.878763      0.513         -23612.386    
     51400   297.44231      2.1627711      2.4574509      44.908425      0.514         -21344.891    
     51500   297.63502      2.175767       2.286568       44.938087      0.515         -21473.151    
     51600   295.92043      2.4053379      2.3934928      44.96775       0.516         -23738.839    
     51700   298.94303      2.4883372      2.3923718      44.997412      0.517         -24557.979    
     51800   297.31072      2.3894736      2.384625       45.027074      0.518         -23582.271    
     51900   298.36955      2.5629571      2.4099394      45.056736      0.519         -25294.42     
     52000   295.78862      2.3102238      2.4680373      45.086398      0.52          -22800.136    
     52100   303.08316      2.5932798      2.3797498      45.11606       0.521         -25593.682    
     52200   295.67376      2.2467208      2.3269918      45.145722      0.522         -22173.411    
     52300   298.78294      2.6766286      2.4693198      45.175384      0.523         -26416.27     
     52400   304.07385      2.7231332      2.6003149      45.205046      0.524         -26875.235    
     52500   297.08874      2.4080857      2.5366286      45.234709      0.525         -23765.958    
     52600   304.26954      2.3422207      2.5111668      45.264371      0.526         -23115.921    
     52700   307.83568      2.4187651      2.4834789      45.294033      0.527         -23871.355    
     52800   296.44745      2.6492677      2.5999571      45.323695      0.528         -26146.239    
     52900   296.43435      2.6434966      2.6122897      45.353357      0.529         -26089.283    
     53000   301.68763      2.6903145      2.6905187      45.383019      0.53          -26551.339    
     53100   303.18039      2.5905214      2.5580259      45.412681      0.531         -25566.458    
     53200   299.25897      3.0168921      2.64562        45.442343      0.532         -29774.41     
     53300   303.44803      2.6649512      2.6811724      45.472005      0.533         -26301.024    
     53400   304.94808      2.5035806      2.498554       45.501667      0.534         -24708.42     
     53500   300.02899      2.6168387      2.5672224      45.53133       0.535         -25826.19     
     53600   302.81931      2.656726       2.7051989      45.560992      0.536         -26219.847    
     53700   303.22123      2.6203481      2.6503006      45.590654      0.537         -25860.825    
     53800   298.50748      2.5433609      2.8042813      45.620316      0.538         -25101.021    
     53900   298.47617      2.6982807      2.713172       45.649978      0.539         -26629.96     
     54000   302.43545      2.5821498      2.7504874      45.67964       0.54          -25483.837    
     54100   298.80463      2.6771413      2.7127387      45.709302      0.541         -26421.33     
     54200   299.31449      2.5404466      2.6606584      45.738964      0.542         -25072.259    
     54300   292.31052      2.8764106      2.8849627      45.768626      0.543         -28387.966    
     54400   296.67869      2.6773233      2.673144       45.798288      0.544         -26423.127    
     54500   300.35659      2.876385       2.8342679      45.827951      0.545         -28387.713    
     54600   298.54481      2.908861       2.7346634      45.857613      0.546         -28708.226    
     54700   303.91648      2.9527311      2.8224456      45.887275      0.547         -29141.19     
     54800   301.38469      2.7959432      2.8059307      45.916937      0.548         -27593.814    
     54900   301.52116      2.6060141      2.8134108      45.946599      0.549         -25719.36     
     55000   298.81047      2.8294376      2.8673972      45.976261      0.55          -27924.378    
     55100   294.95921      2.6871004      2.8930499      46.005923      0.551         -26519.619    
     55200   295.21751      3.0057405      2.8937111      46.035585      0.552         -29664.353    
     55300   306.47516      3.1774994      3.0404246      46.065247      0.553         -31359.481    
     55400   302.31645      2.9227669      2.8537892      46.09491       0.554         -28845.466    
     55500   302.17201      2.5523671      2.919251       46.124572      0.555         -25189.905    
     55600   305.24239      2.9891906      2.9855983      46.154234      0.556         -29501.017    
     55700   299.73869      2.7998748      2.9632592      46.183896      0.557         -27632.615    
     55800   300.89256      2.6695746      3.0185968      46.213558      0.558         -26346.652    
     55900   306.42648      2.7442701      2.9793296      46.24322       0.559         -27083.84     
     56000   305.18395      2.8596302      2.984929       46.272882      0.56          -28222.355    
     56100   300.89249      2.9418388      3.1024447      46.302544      0.561         -29033.691    
     56200   302.55059      3.0893928      3.0556823      46.332206      0.562         -30489.936    
     56300   295.26225      3.1745278      3.1228999      46.361868      0.563         -31330.154    
     56400   300.84879      2.9195264      3.057932       46.391531      0.564         -28813.486    
     56500   293.47255      3.3071145      3.2066903      46.421193      0.565         -32638.683    
     56600   301.19351      3.2327556      3.1816719      46.450855      0.566         -31904.817    
     56700   297.51033      3.1904502      3.1666882      46.480517      0.567         -31487.295    
     56800   298.32928      3.4426615      3.2898609      46.510179      0.568         -33976.427    
     56900   296.2318       3.4296419      3.1857392      46.539841      0.569         -33847.933    
     57000   301.27341      3.3091926      3.2704278      46.569503      0.57          -32659.191    
     57100   301.0408       3.2968769      3.2080783      46.599165      0.571         -32537.645    
     57200   297.75371      3.2485561      3.2853647      46.628827      0.572         -32060.756    
     57300   295.9281       3.1900198      3.1847822      46.658489      0.573         -31483.047    
     57400   295.80515      3.4486742      3.3218641      46.688152      0.574         -34035.768    
     57500   305.18103      3.0078599      3.3224993      46.717814      0.575         -29685.269    
     57600   301.78612      3.1828163      3.2102934      46.747476      0.576         -31411.955    
     57700   302.69371      3.4776545      3.442979       46.777138      0.577         -34321.781    
     57800   299.66768      3.3921254      3.393649       46.8068        0.578         -33477.675    
     57900   297.79594      3.5148824      3.3956905      46.836462      0.579         -34689.192    
     58000   301.32794      3.5984333      3.5016379      46.866124      0.58          -35513.776    
     58100   305.46603      3.4432436      3.5278844      46.895786      0.581         -33982.172    
     58200   305.25742      3.4927807      3.4514636      46.925448      0.582         -34471.066    
     58300   301.75491      3.2608786      3.4521838      46.955111      0.583         -32182.369    
     58400   296.59385      3.3177197      3.5541751      46.984773      0.584         -32743.348    
     58500   296.54005      3.2948952      3.4844401      47.014435      0.585         -32518.088    
     58600   296.83761      3.36005        3.5355076      47.044097      0.586         -33161.115    
     58700   297.82924      3.6846746      3.6834852      47.073759      0.587         -36364.911    
     58800   300.07198      3.5946994      3.5327258      47.103421      0.588         -35476.924    
     58900   301.51649      3.5626017      3.6180247      47.133083      0.589         -35160.145    
     59000   301.46817      3.6668368      3.6908388      47.162745      0.59          -36188.866    
     59100   301.02317      3.5545022      3.6303216      47.192407      0.591         -35080.209    
     59200   298.57139      3.6879496      3.5895834      47.222069      0.592         -36397.233    
     59300   295.72849      3.679603       3.6425839      47.251732      0.593         -36314.859    
     59400   300.52807      3.8298807      3.6441394      47.281394      0.594         -37797.984    
     59500   296.85358      3.8649431      3.6648001      47.311056      0.595         -38144.023    
     59600   298.99687      3.4512655      3.6478375      47.340718      0.596         -34061.342    
     59700   298.49178      3.6597638      3.6807701      47.37038       0.597         -36119.061    
     59800   297.19346      3.931858       3.6390085      47.400042      0.598         -38804.421    
     59900   302.66398      3.5433742      3.6588741      47.429704      0.599         -34970.385    
     60000   297.81717      3.9428137      3.6820297      47.459366      0.6           -38912.546    
     60100   293.7175       3.6800224      3.8239585      47.489028      0.601         -36318.998    
     60200   301.40115      3.6995195      3.7131168      47.518691      0.602         -36511.419    
     60300   299.10269      3.8994364      3.7813582      47.548353      0.603         -38484.445    
     60400   295.36722      3.7855249      3.7404687      47.578015      0.604         -37360.226    
     60500   295.37218      3.9371138      3.8045327      47.607677      0.605         -38856.292    
     60600   304.46976      4.0030535      3.8760695      47.637339      0.606         -39507.066    
     60700   303.8504       3.7307461      3.8880722      47.667001      0.607         -36819.601    
     60800   301.00145      3.9766279      3.967867       47.696663      0.608         -39246.266    
     60900   306.78332      3.8207241      4.0441947      47.726325      0.609         -37707.615    
     61000   302.36928      3.8205561      3.8465738      47.755987      0.61          -37705.957    
     61100   301.5748       4.0588994      3.8904792      47.785649      0.611         -40058.223    
     61200   301.11578      4.1842826      3.9376189      47.815312      0.612         -41295.659    
     61300   299.7685       3.705748       3.9513235      47.844974      0.613         -36572.889    
     61400   300.3485       3.821141       3.9978801      47.874636      0.614         -37711.729    
     61500   301.87162      4.0114413      4.1592578      47.904298      0.615         -39589.848    
     61600   299.45501      3.9294313      4.0627824      47.93396       0.616         -38780.472    
     61700   306.31096      4.0524627      3.9725701      47.963622      0.617         -39994.697    
     61800   301.44766      4.2690307      4.0944618      47.993284      0.618         -42132.057    
     61900   303.06373      3.9333726      4.083284       48.022946      0.619         -38819.37     
     62000   294.89688      4.1556504      4.0092661      48.052608      0.62          -41013.08     
     62100   300.08256      4.114567       4.1926055      48.08227       0.621         -40607.619    
     62200   296.87291      4.390768       4.2240474      48.111933      0.622         -43333.511    
     62300   303.94463      4.3528413      4.2554243      48.141595      0.623         -42959.203    
     62400   302.69188      4.3903105      4.2479294      48.171257      0.624         -43328.996    
     62500   300.2518       4.3172793      4.1906575      48.200919      0.625         -42608.234    
     62600   302.23855      4.1799575      4.2214295      48.230581      0.626         -41252.973    
     62700   297.53155      4.0636313      4.2102775      48.260243      0.627         -40104.923    
     62800   301.91187      4.3889939      4.1988597      48.289905      0.628         -43316.002    
     62900   302.88153      4.2155545      4.3411521      48.319567      0.629         -41604.288    
     63000   304.73702      4.2065551      4.2436598      48.349229      0.63          -41515.471    
     63100   299.21303      4.2784838      4.3241633      48.378892      0.631         -42225.352    
     63200   299.14743      4.4602565      4.3727858      48.408554      0.632         -44019.309    
     63300   299.82928      4.3462656      4.3534308      48.438216      0.633         -42894.306    
     63400   300.4494       4.544107       4.4139916      48.467878      0.634         -44846.849    
     63500   300.25289      4.4673935      4.4080526      48.49754       0.635         -44089.746    
     63600   297.37152      4.5766502      4.4410269      48.527202      0.636         -45168.026    
     63700   295.12481      4.3949906      4.4986327      48.556864      0.637         -43375.185    
     63800   302.42395      4.210693       4.4509448      48.586526      0.638         -41556.309    
     63900   299.66749      4.4426233      4.4673838      48.616188      0.639         -43845.283    
     64000   295.50484      4.739429       4.6139322      48.64585       0.64          -46774.527    
     64100   300.54479      4.4980813      4.5769973      48.675513      0.641         -44392.611    
     64200   301.43492      4.5888767      4.4378258      48.705175      0.642         -45288.692    
     64300   301.47728      4.7422815      4.5992795      48.734837      0.643         -46802.68     
     64400   303.08771      4.7038009      4.6719956      48.764499      0.644         -46422.905    
     64500   303.6798       4.8627901      4.5958416      48.794161      0.645         -47992.007    
     64600   305.17817      4.4353714      4.637495       48.823823      0.646         -43773.713    
     64700   301.34208      4.8087522      4.6123586      48.853485      0.647         -47458.694    
     64800   304.2226       4.7855151      4.721202       48.883147      0.648         -47229.362    
     64900   297.89872      4.910902       4.7935094      48.912809      0.649         -48466.834    
     65000   298.305        4.7393197      4.7728595      48.942471      0.65          -46773.449    
     65100   301.82173      4.6665988      4.7068465      48.972134      0.651         -46055.749    
     65200   298.44181      4.8446902      4.7843914      49.001796      0.652         -47813.375    
     65300   297.44854      4.7193173      4.7555593      49.031458      0.653         -46576.04     
     65400   306.57993      4.9738518      4.8421181      49.06112       0.654         -49088.101    
     65500   295.87911      4.861115       4.8281635      49.090782      0.655         -47975.475    
     65600   300.4858       5.0859252      4.9662246      49.120444      0.656         -50194.179    
     65700   299.028        5.0032321      4.9245169      49.150106      0.657         -49378.061    
     65800   297.06601      4.6592439      4.8454049      49.179768      0.658         -45983.162    
     65900   298.24514      5.1110308      4.816913       49.20943       0.659         -50441.952    
     66000   306.73334      5.0966082      4.9329712      49.239093      0.66          -50299.612    
     66100   300.00083      4.9586232      4.9819223      49.268755      0.661         -48937.806    
     66200   301.17145      5.015129       4.8949124      49.298417      0.662         -49495.475    
     66300   298.21097      5.0419245      5.0406284      49.328079      0.663         -49759.926    
     66400   304.0435       5.1561999      4.9804465      49.357741      0.664         -50887.736    
     66500   298.05178      4.8991721      4.8996212      49.387403      0.665         -48351.069    
     66600   297.44522      4.8991467      4.9235238      49.417065      0.666         -48350.818    
     66700   299.72928      5.1670125      5.0474964      49.446727      0.667         -50994.449    
     66800   298.59953      4.9925237      5.1181201      49.476389      0.668         -49272.378    
     66900   301.6348       4.9821298      5.0895339      49.506051      0.669         -49169.798    
     67000   297.23262      5.1965525      5.0303682      49.535714      0.67          -51285.985    
     67100   293.31141      5.1498135      5.1607229      49.565376      0.671         -50824.708    
     67200   300.48736      5.305015       5.1958047      49.595038      0.672         -52356.428    
     67300   294.86896      5.3457859      5.2289202      49.6247        0.673         -52758.805    
     67400   301.182        5.1586477      5.262805       49.654362      0.674         -50911.894    
     67500   298.08193      5.1476527      5.2518808      49.684024      0.675         -50803.382    
     67600   299.64047      5.2225523      5.3225831      49.713686      0.676         -51542.584    
     67700   299.68222      5.3781443      5.2369401      49.743348      0.677         -53078.157    
     67800   301.66731      5.2382624      5.2114561      49.77301       0.678         -51697.631    
     67900   294.2803       5.3214629      5.3950756      49.802673      0.679         -52518.755    
     68000   300.22868      5.5869699      5.3209398      49.832335      0.68          -55139.106    
     68100   294.91128      5.1449526      5.3224131      49.861997      0.681         -50776.734    
     68200   294.9576       5.3366425      5.2288551      49.891659      0.682         -52668.567    
     68300   303.45538      5.5655645      5.3731658      49.921321      0.683         -54927.851    
     68400   302.55419      5.5017023      5.4859756      49.950983      0.684         -54297.58     
     68500   306.78876      5.498077       5.4150532      49.980645      0.685         -54261.801    
     68600   303.96714      5.5037418      5.5410241      50.010307      0.686         -54317.709    
     68700   297.90954      5.7418683      5.4831665      50.039969      0.687         -56667.834    
     68800   299.14382      5.6809138      5.6957456      50.069631      0.688         -56066.26     
     68900   301.37053      5.6737152      5.5810997      50.099294      0.689         -55995.215    
     69000   295.9958       5.6370489      5.5073754      50.128956      0.69          -55633.347    
     69100   298.18724      5.5722223      5.5491646      50.158618      0.691         -54993.558    
     69200   294.76712      6.088302       5.5755661      50.18828       0.692         -60086.869    
     69300   300.43668      5.6056953      5.6241686      50.217942      0.693         -55323.911    
     69400   299.80454      5.5157068      5.5546089      50.247604      0.694         -54435.794    
     69500   302.23292      5.7314319      5.6487488      50.277266      0.695         -56564.834    
     69600   300.22655      5.6041892      5.7529692      50.306928      0.696         -55309.047    
     69700   300.49003      5.6025032      5.7833994      50.33659       0.697         -55292.408    
     69800   301.88211      5.8191139      5.7139072      50.366252      0.698         -57430.189    
     69900   302.44153      5.9664708      5.7989775      50.395915      0.699         -58884.488    
     70000   300.74183      5.7598284      5.896082       50.425577      0.7           -56845.086    
     70100   304.04556      5.9086504      5.884727       50.455239      0.701         -58313.846    
     70200   303.29103      5.9166859      5.8675464      50.484901      0.702         -58393.149    
     70300   298.06523      6.0061112      6.000617       50.514563      0.703         -59275.709    
     70400   300.18955      5.9930784      5.9650336      50.544225      0.704         -59147.086    
     70500   301.05961      6.1077662      5.9653386      50.573887      0.705         -60278.966    
     70600   300.84589      5.9776702      5.8900273      50.603549      0.706         -58995.018    
     70700   302.74968      6.1382884      6.1245511      50.633211      0.707         -60580.196    
     70800   304.20677      5.8743689      6.0539251      50.662874      0.708         -57975.514    
     70900   294.28294      6.3293312      6.0325044      50.692536      0.709         -62465.643    
     71000   300.08351      6.4356857      6.1122439      50.722198      0.71          -63515.279    
     71100   304.46155      6.3067185      6.220975       50.75186       0.711         -62242.472    
     71200   296.97814      6.311808       6.1103302      50.781522      0.712         -62292.701    
     71300   307.28978      6.0883462      6.2089383      50.811184      0.713         -60087.306    
     71400   296.74623      6.0941843      6.1932534      50.840846      0.714         -60144.923    
     71500   292.91879      6.470911       6.2835971      50.870508      0.715         -63862.927    
     71600   298.16442      6.3507005      6.2968912      50.90017       0.716         -62676.54     
     71700   299.08733      6.3731961      6.1940322      50.929832      0.717         -62898.556    
     71800   299.49051      6.3413441      6.295081       50.959495      0.718         -62584.2      
     71900   295.9971       6.3566825      6.4022837      50.989157      0.719         -62735.579    
     72000   300.06127      6.4688735      6.4504146      51.018819      0.72          -63842.818    
     72100   304.199        6.2935068      6.387304       51.048481      0.721         -62112.083    
     72200   297.49448      6.2878619      6.4626418      51.078143      0.722         -62056.372    
     72300   307.03064      6.5911119      6.4061091      51.107805      0.723         -65049.217    
     72400   301.0827       6.5419366      6.4653366      51.137467      0.724         -64563.895    
     72500   301.97584      6.3872956      6.4721391      51.167129      0.725         -63037.706    
     72600   301.12916      6.3926392      6.4608993      51.196791      0.726         -63090.443    
     72700   302.19993      6.4960551      6.5284998      51.226453      0.727         -64111.079    
     72800   299.73009      6.5575198      6.4948065      51.256116      0.728         -64717.688    
     72900   300.0802       6.5050885      6.5804925      51.285778      0.729         -64200.232    
     73000   299.95735      6.5705677      6.7558083      51.31544       0.73          -64846.461    
     73100   295.19245      6.7090918      6.6802938      51.345102      0.731         -66213.588    
     73200   296.40158      6.4949795      6.5705338      51.374764      0.732         -64100.464    
     73300   298.83415      6.3581379      6.6080079      51.404426      0.733         -62749.942    
     73400   300.46043      6.733325       6.7089683      51.434088      0.734         -66452.751    
     73500   302.82461      6.9595351      6.8617675      51.46375       0.735         -68685.271    
     73600   302.57456      6.8372753      6.8982077      51.493412      0.736         -67478.661    
     73700   297.36707      6.5931327      6.819657       51.523075      0.737         -65069.161    
     73800   298.50847      6.8240301      6.7187739      51.552737      0.738         -67347.941    
     73900   299.59743      6.5566733      6.8476369      51.582399      0.739         -64709.334    
     74000   300.85077      6.7962373      6.8140804      51.612061      0.74          -67073.647    
     74100   303.55114      7.1033641      6.9578847      51.641723      0.741         -70104.753    
     74200   300.68202      7.1531322      6.8320854      51.671385      0.742         -70595.926    
     74300   296.27065      7.3481438      6.9754609      51.701047      0.743         -72520.541    
     74400   300.60689      7.2757474      7.0418492      51.730709      0.744         -71806.044    
     74500   299.62706      7.0260544      7.0989035      51.760371      0.745         -69341.765    
     74600   296.44021      6.920794       7.0480737      51.790033      0.746         -68302.926    
     74700   296.09335      7.2552655      7.0616974      51.819696      0.747         -71603.903    
     74800   305.47317      7.1472754      7.2476821      51.849358      0.748         -70538.123    
     74900   302.6648       6.8755701      7.2062526      51.87902       0.749         -67856.601    
     75000   304.00114      6.7096429      7.0517159      51.908682      0.75          -66219.027    
     75100   296.03985      7.1831467      7.1531351      51.938344      0.751         -70892.146    
     75200   301.21795      7.1596725      7.2245783      51.968006      0.752         -70660.474    
     75300   299.60074      7.03747        7.3405566      51.997668      0.753         -69454.429    
     75400   298.8771       7.48997        7.3713684      52.02733       0.754         -73920.256    
     75500   298.33247      7.3243225      7.3948522      52.056992      0.755         -72285.443    
     75600   301.04245      7.4350233      7.3867794      52.086655      0.756         -73377.975    
     75700   302.84731      7.1797958      7.3705487      52.116317      0.757         -70859.075    
     75800   299.24017      7.4440764      7.4547712      52.145979      0.758         -73467.322    
[...]
     81800   300.13332      9.040786       9.2119944      53.925705      0.818         -89225.62     
     81900   298.4907       9.0239111      9.1898217      53.955367      0.819         -89059.078    
     82000   296.80976      9.3019458      9.1745718      53.985029      0.82          -91803.067    
     82100   299.73191      9.2380665      9.1794545      54.014691      0.821         -91172.627    
     82200   295.44164      9.2753265      9.179193       54.044353      0.822         -91540.355    
     82300   301.93724      9.5059707      9.360163       54.074015      0.823         -93816.637    
     82400   302.2653       9.5295307      9.319868       54.103678      0.824         -94049.155    
     82500   299.19916      9.4717617      9.4008193      54.13334       0.825         -93479.02     
     82600   297.35884      9.0964821      9.3040254      54.163002      0.826         -89775.298    
     82700   301.1109       9.2209879      9.2807828      54.192664      0.827         -91004.075    
     82800   295.17245      9.5533567      9.4141083      54.222326      0.828         -94284.3      
     82900   302.30686      9.6251695      9.4677315      54.251988      0.829         -94993.037    
     83000   294.84942      9.4624956      9.4853525      54.28165       0.83          -93387.571    
     83100   302.96627      9.5377214      9.5535891      54.311312      0.831         -94129.991    
     83200   302.31618      9.6402496      9.6076322      54.340974      0.832         -95141.866    
     83300   298.28526      9.6001244      9.6332923      54.370637      0.833         -94745.862    
     83400   300.10536      9.766815       9.6630665      54.400299      0.834         -96390.969    
     83500   299.45944      9.6996918      9.690726       54.429961      0.835         -95728.515    
     83600   302.0562       9.6730721      9.7510119      54.459623      0.836         -95465.799    
     83700   296.53326      9.7580124      9.7278605      54.489285      0.837         -96304.095    
     83800   298.96223      9.922892       9.795506       54.518947      0.838         -97931.33     
     83900   299.50615      9.6088867      9.7550982      54.548609      0.839         -94832.339    
     84000   305.77664      9.6971922      9.7308526      54.578271      0.84          -95703.846    
     84100   305.17207      9.8289168      9.8633754      54.607933      0.841         -97003.867    
     84200   303.54931      9.8534645      9.9305729      54.637595      0.842         -97246.134    
     84300   301.07589      9.8700917      9.9207792      54.667258      0.843         -97410.232    
     84400   301.3726       9.8403299      9.9921405      54.69692       0.844         -97116.506    
     84500   302.62687      10.041619      10.031733      54.726582      0.845         -99103.077    
     84600   301.86722      10.171111      10.133452      54.756244      0.846         -100381.06    
     84700   292.8751       10.039316      9.99576        54.785906      0.847         -99080.344    
     84800   308.04368      10.035758      9.9612013      54.815568      0.848         -99045.233    
     84900   302.64783      10.199107      10.07008       54.84523       0.849         -100657.36    
     85000   300.93692      10.340712      10.134429      54.874892      0.85          -102054.89    
     85100   299.12334      10.195919      10.071783      54.904554      0.851         -100625.9     
     85200   305.32209      10.372523      10.171954      54.934216      0.852         -102368.85    
     85300   295.86675      10.14149       10.189945      54.963879      0.853         -100088.72    
     85400   299.08821      10.218398      10.171721      54.993541      0.854         -100847.75    
     85500   298.12029      10.229373      10.259617      55.023203      0.855         -100956.06    
     85600   299.92043      10.416421      10.306434      55.052865      0.856         -102802.08    
     85700   303.37332      10.373585      10.454093      55.082527      0.857         -102379.32    
     85800   301.96652      10.154661      10.40515       55.112189      0.858         -100218.71    
     85900   299.07616      10.530023      10.408285      55.141851      0.859         -103923.24    
     86000   299.36112      10.36643       10.514897      55.171513      0.86          -102308.71    
     86100   299.49936      10.620832      10.472929      55.201175      0.861         -104819.46    
     86200   300.34435      10.581545      10.488013      55.230838      0.862         -104431.73    
     86300   295.63037      10.694851      10.504104      55.2605        0.863         -105549.97    
     86400   299.1056       10.205947      10.48775       55.290162      0.864         -100724.87    
     86500   304.18154      10.722006      10.526617      55.319824      0.865         -105817.97    
     86600   301.75439      10.365401      10.587359      55.349486      0.866         -102298.55    
     86700   294.69999      10.510762      10.559571      55.379148      0.867         -103733.16    
     86800   291.60237      10.722984      10.668728      55.40881       0.868         -105827.62    
     86900   300.69126      10.665494      10.669321      55.438472      0.869         -105260.24    
     87000   302.27483      11.037844      10.741347      55.468134      0.87          -108935.05    
     87100   301.02993      10.867836      10.752395      55.497796      0.871         -107257.21    
     87200   301.41151      10.692935      10.772045      55.527459      0.872         -105531.07    
     87300   300.22715      10.678811      10.754023      55.557121      0.873         -105391.67    
     87400   299.09388      11.128154      10.882854      55.586783      0.874         -109826.34    
     87500   302.54884      10.886383      10.888565      55.616445      0.875         -107440.25    
     87600   302.68287      11.011639      10.971448      55.646107      0.876         -108676.42    
     87700   299.04285      10.846237      11.013132      55.675769      0.877         -107044.04    
     87800   301.53189      11.145695      10.975699      55.705431      0.878         -109999.46    
     87900   302.61272      11.327189      11.085441      55.735093      0.879         -111790.66    
     88000   304.43491      11.205681      11.093246      55.764755      0.88          -110591.47    
     88100   298.6923       11.005425      11.0749        55.794418      0.881         -108615.1     
     88200   297.61403      11.004194      11.206082      55.82408       0.882         -108602.96    
     88300   304.39187      11.34105       11.12071       55.853742      0.883         -111927.46    
     88400   304.39353      11.085281      11.193195      55.883404      0.884         -109403.22    
     88500   300.61961      11.115652      11.218599      55.913066      0.885         -109702.96    
     88600   301.45771      11.36303       11.276047      55.942728      0.886         -112144.39    
     88700   307.19622      11.222013      11.361244      55.97239       0.887         -110752.66    
     88800   295.96445      11.415671      11.304808      56.002052      0.888         -112663.91    
     88900   296.00656      11.357438      11.356293      56.031714      0.889         -112089.19    
     89000   297.66545      11.54729       11.337614      56.061376      0.89          -113962.9     
     89100   300.54134      11.43955       11.529482      56.091039      0.891         -112899.58    
     89200   301.549        11.524246      11.449664      56.120701      0.892         -113735.46    
     89300   304.84195      11.676768      11.535542      56.150363      0.893         -115240.74    
     89400   306.12552      11.480162      11.473286      56.180025      0.894         -113300.39    
     89500   300.7459       11.398213      11.610534      56.209687      0.895         -112491.62    
     89600   297.44012      11.312821      11.592272      56.239349      0.896         -111648.87    
     89700   298.87627      11.500014      11.603465      56.269011      0.897         -113496.31    
     89800   295.01075      11.739669      11.60537       56.298673      0.898         -115861.52    
     89900   297.26306      11.719285      11.604485      56.328335      0.899         -115660.35    
     90000   298.27997      11.720189      11.62259       56.357997      0.9           -115669.27    
     90100   303.50291      11.776536      11.727567      56.38766       0.901         -116225.38    
     90200   294.97988      12.081265      11.825856      56.417322      0.902         -119232.81    
     90300   306.24317      11.945484      11.890509      56.446984      0.903         -117892.76    
     90400   298.77178      11.868122      11.900142      56.476646      0.904         -117129.25    
     90500   302.36333      11.82281       11.881837      56.506308      0.905         -116682.06    
     90600   300.42159      12.151741      11.984547      56.53597       0.906         -119928.36    
     90700   296.90139      12.034186      12.051583      56.565632      0.907         -118768.18    
     90800   300.64004      12.348149      12.031054      56.595294      0.908         -121866.75    
     90900   297.75395      12.12281       12.140709      56.624956      0.909         -119642.84    
     91000   298.59066      12.039048      12.054886      56.654619      0.91          -118816.16    
     91100   297.51291      12.13548       12.209064      56.684281      0.911         -119767.87    
     91200   300.62295      11.981418      12.136095      56.713943      0.912         -118247.4     
     91300   302.60151      12.222162      12.202918      56.743605      0.913         -120623.36    
     91400   302.41186      12.464529      12.431341      56.773267      0.914         -123015.33    
     91500   297.36083      12.211725      12.238002      56.802929      0.915         -120520.36    
     91600   304.72545      12.314093      12.211307      56.832591      0.916         -121530.65    
     91700   299.47687      12.566514      12.357127      56.862253      0.917         -124021.85    
     91800   301.57211      12.457985      12.459878      56.891915      0.918         -122950.76    
     91900   301.59865      12.434138      12.426303      56.921577      0.919         -122715.4     
     92000   305.52124      12.564792      12.527039      56.95124       0.92          -124004.86    
     92100   302.09132      12.564189      12.413457      56.980902      0.921         -123998.9     
     92200   295.31558      12.427463      12.42045       57.010564      0.922         -122649.52    
     92300   302.68286      12.902085      12.53248       57.040226      0.923         -127333.68    
     92400   303.69764      12.620542      12.606358      57.069888      0.924         -124555.07    
     92500   302.1483       12.432757      12.450161      57.09955       0.925         -122701.78    
     92600   299.62424      12.652429      12.502789      57.129212      0.926         -124869.76    
     92700   298.49264      12.444318      12.605047      57.158874      0.927         -122815.87    
     92800   300.73234      12.641939      12.632066      57.188536      0.928         -124766.24    
     92900   303.64923      12.794279      12.716694      57.218198      0.929         -126269.72    
     93000   294.52458      12.818113      12.790898      57.247861      0.93          -126504.94    
     93100   300.77984      13.064224      12.883368      57.277523      0.931         -128933.87    
     93200   305.0497       13.344501      13.059787      57.307185      0.932         -131699.99    
     93300   305.50395      13.25823       13.046292      57.336847      0.933         -130848.56    
     93400   304.94526      12.955527      12.963947      57.366509      0.934         -127861.11    
     93500   300.02295      13.125123      12.997146      57.396171      0.935         -129534.89    
     93600   297.98584      12.975594      13.056229      57.425833      0.936         -128059.15    
     93700   292.00445      12.86873       13.062146      57.455495      0.937         -127004.49    
     93800   297.30836      13.229182      13.112235      57.485157      0.938         -130561.88    
     93900   301.47506      13.044816      13.161655      57.51482       0.939         -128742.33    
     94000   301.91096      12.899455      13.194015      57.544482      0.94          -127307.73    
     94100   296.05217      13.286109      13.222074      57.574144      0.941         -131123.7     
     94200   298.68295      13.143654      13.260501      57.603806      0.942         -129717.78    
     94300   295.43117      13.166708      13.350548      57.633468      0.943         -129945.3     
     94400   291.67106      13.277815      13.347677      57.66313       0.944         -131041.84    
     94500   301.03146      13.349284      13.40604       57.692792      0.945         -131747.19    
     94600   300.45853      13.602522      13.378165      57.722454      0.946         -134246.45    
     94700   303.70505      13.812024      13.584949      57.752116      0.947         -136314.08    
     94800   303.08497      13.385505      13.557168      57.781778      0.948         -132104.66    
     94900   298.244        13.401678      13.665953      57.811441      0.949         -132264.28    
     95000   299.032        13.54406       13.597536      57.841103      0.95          -133669.48    
     95100   299.96321      13.691351      13.697864      57.870765      0.951         -135123.13    
     95200   300.55091      13.852093      13.795386      57.900427      0.952         -136709.53    
     95300   298.10243      13.497922      13.806349      57.930089      0.953         -133214.14    
     95400   304.96595      13.972452      13.768611      57.959751      0.954         -137897.38    
     95500   302.24207      13.94543       13.889092      57.989413      0.955         -137630.69    
     95600   299.7819       13.952047      13.869743      58.019075      0.956         -137696       
     95700   303.915        13.901796      13.961141      58.048737      0.957         -137200.06    
     95800   298.9601       13.951101      13.788969      58.0784        0.958         -137686.66    
     95900   300.72467      13.645629      13.922059      58.108062      0.959         -134671.89    
     96000   298.44736      13.711181      13.924211      58.137724      0.96          -135318.83    
     96100   301.76188      14.057675      13.984846      58.167386      0.961         -138738.47    
     96200   301.48687      14.096576      14.057127      58.197048      0.962         -139122.39    
     96300   298.08487      13.96427       13.954279      58.22671       0.963         -137816.63    
     96400   301.21216      13.967666      14.024472      58.256372      0.964         -137850.15    
     96500   301.33597      14.282494      14.090056      58.286034      0.965         -140957.26    
     96600   299.23586      14.180471      14.174478      58.315696      0.966         -139950.36    
     96700   300.75997      14.133002      14.220229      58.345358      0.967         -139481.88    
     96800   302.84227      14.373999      14.246403      58.375021      0.968         -141860.35    
     96900   301.21135      14.440615      14.300669      58.404683      0.969         -142517.79    
     97000   303.78121      14.408059      14.443755      58.434345      0.97          -142196.49    
     97100   305.25155      14.231836      14.378655      58.464007      0.971         -140457.3     
     97200   297.51769      14.586586      14.371118      58.493669      0.972         -143958.41    
     97300   308.45771      14.362485      14.47708       58.523331      0.973         -141746.7     
     97400   296.23136      14.411043      14.573909      58.552993      0.974         -142225.93    
     97500   300.75505      14.421486      14.458389      58.582655      0.975         -142329       
     97600   299.53273      14.641318      14.448048      58.612317      0.976         -144498.58    
     97700   301.03804      14.539736      14.565019      58.641979      0.977         -143496.03    
     97800   302.6942       14.634718      14.603945      58.671642      0.978         -144433.44    
     97900   302.22321      14.624366      14.702888      58.701304      0.979         -144331.27    
     98000   304.69661      14.857271      14.714185      58.730966      0.98          -146629.87    
     98100   293.38479      14.961867      14.766274      58.760628      0.981         -147662.15    
     98200   303.42849      14.99703       14.918829      58.79029       0.982         -148009.18    
     98300   305.72439      14.901363      14.754525      58.819952      0.983         -147065.01    
     98400   303.13874      14.618163      14.85769       58.849614      0.984         -144270.05    
     98500   295.33206      14.84869       14.88753       58.879276      0.985         -146545.18    
     98600   301.13108      15.111083      14.955125      58.908938      0.986         -149134.79    
     98700   298.89102      14.992956      14.925086      58.938601      0.987         -147968.97    
     98800   299.33841      14.972958      15.041862      58.968263      0.988         -147771.6     
     98900   295.66715      14.855055      15.048188      58.997925      0.989         -146608       
     99000   302.09417      15.144844      15.151268      59.027587      0.99          -149467.99    
     99100   302.96216      14.936014      15.311163      59.057249      0.991         -147407       
     99200   294.77812      15.0762        15.145853      59.086911      0.992         -148790.53    
     99300   296.4923       15.128832      15.238268      59.116573      0.993         -149309.96    
     99400   300.46655      15.003901      15.320417      59.146235      0.994         -148076.99    
     99500   297.75481      15.289708      15.180818      59.175897      0.995         -150897.69    
     99600   299.49017      15.204903      15.438405      59.205559      0.996         -150060.73    
     99700   302.61124      15.481265      15.405486      59.235222      0.997         -152788.21    
     99800   305.25303      15.652344      15.399476      59.264884      0.998         -154476.63    
     99900   303.31525      15.618443      15.503969      59.294546      0.999         -154142.05    
    100000   299.70167      15.429837      15.459371      59.324208      1             -152280.66    
Loop time of 632.994 on 4 procs for 100000 steps with 2988 atoms

Performance: 13.649 ns/day, 1.758 hours/ns, 157.979 timesteps/s
239.9% CPU use with 1 MPI tasks x 4 OpenMP threads

MPI task timing breakdown:
Section |  min time  |  avg time  |  max time  |%varavg| %total
---------------------------------------------------------------
Pair    | 441.3      | 441.3      | 441.3      |   0.0 | 69.72
Bond    | 41.118     | 41.118     | 41.118     |   0.0 |  6.50
Neigh   | 70.112     | 70.112     | 70.112     |   0.0 | 11.08
Comm    | 10.945     | 10.945     | 10.945     |   0.0 |  1.73
Output  | 0.28434    | 0.28434    | 0.28434    |   0.0 |  0.04
Modify  | 68.039     | 68.039     | 68.039     |   0.0 | 10.75
Other   |            | 1.195      |            |       |  0.19

Nlocal:           2988 ave        2988 max        2988 min
Histogram: 1 0 0 0 0 0 0 0 0 0
Nghost:          13702 ave       13702 max       13702 min
Histogram: 1 0 0 0 0 0 0 0 0 0
Neighs:         998370 ave      998370 max      998370 min
Histogram: 1 0 0 0 0 0 0 0 0 0

Total # of neighbors = 998370
Ave neighs/atom = 334.12651
Ave special neighs/atom = 12.156627
Neighbor list builds = 4802
Dangerous builds = 0
unfix 1
unfix 2
unfix def1

print "All done"
All done
Total wall time: 0:10:33
