units			real
dimension		3
processors		* * *
boundary		p p p
atom_style		full
pair_style		lj/cut 10.0
bond_style		harmonic
angle_style 	harmonic
read_data		PVA4_equilibrated.data
Reading data file ...
  orthogonal box = (30.614546 29.037549 30.45605) to (59.769448 58.192451 59.610952)
  1 by 1 by 1 MPI processor grid
  reading atoms ...
  2808 atoms
  reading velocities ...
  2808 velocities
  scanning bonds ...
  3 = max bonds/atom
  scanning angles ...
  6 = max angles/atom
  reading bonds ...
  2804 bonds
  reading angles ...
  5200 angles
Finding 1-2 1-3 1-4 neighbors ...
  special bond factors lj:    0        0        0       
  special bond factors coul:  0        0        0       
     4 = max # of 1-2 neighbors
     7 = max # of 1-3 neighbors
    14 = max # of 1-4 neighbors
    18 = max # of special neighbors
  special bonds CPU = 0.005 seconds
  read_data CPU = 0.061 seconds
variable simname index ssc_not_linked_2
variable tmp equal "lx"
variable L0 equal ${tmp}
variable L0 equal 29.1549029064426
variable strain equal "(lx - v_L0)/v_L0"
variable p1 equal "v_strain"
variable p2 equal "-pxx/10000*1.01325"
variable p3 equal "-pyy/10000*1.01325"
variable p4 equal "-pzz/10000*1.01325"
variable p5 equal "lx"
variable p6 equal "ly"
variable p7 equal "lz"
variable p8 equal "temp"
fix		1 all npt temp 300 300 50 y 1 1 100 z 1 1 100
fix		2 all deform 1 x erate 1e-5 units box remap x
fix        3 all ave/time 1 100 100 v_p2 v_p3
variable avg_stress equal f_3[1]
fix def1 all print 100 "${p1} ${p2} ${avg_stress}" file ${simname}.txt screen no
fix def1 all print 100 "${p1} ${p2} ${avg_stress}" file ssc_not_linked_2.txt screen no
thermo_style	custom step temp v_p2 v_avg_stress lx ly lz vol v_strain pxx
thermo          100
timestep	1
run		100000
Generated 36 of 36 mixed pair_coeff terms from geometric mixing rule
Last active /omp style is angle_style harmonic/omp
Neighbor list info ...
  update every 1 steps, delay 10 steps, check yes
  max neighbors/atom: 2000, page size: 100000
  master list distance cutoff = 12
  ghost atom cutoff = 12
  binsize = 6, bins = 5 5 5
  1 neighbor lists, perpetual/occasional/extra = 1 0 0
  (1) pair lj/cut/omp, perpetual
      attributes: half, newton on, omp
      pair build: half/bin/newton/omp
      stencil: half/bin/3d
      bin: standard
Per MPI rank memory allocation (min/avg/max) = 25.31 | 25.31 | 25.31 Mbytes
   Step          Temp           v_p2       v_avg_stress        Lx             Ly             Lz           Volume        v_strain         Pxx      
         0   306.92569     -0.032929718    0              29.154903      29.154903      29.154903      24781.911     -1.2185647e-16  324.99104    
       100   296.25895     -0.018508232   -0.009585647    29.184058      29.29279       29.289654      25039.212      0.001          182.66205    
       200   303.48298      0.1119863      0.052848252    29.213213      29.302036      29.410357      25175.46       0.002         -1105.2188    
       300   303.28552     -0.26861216     0.044490794    29.242368      29.135444      29.21996       24895.095      0.003          2650.996     
       400   295.93021      0.48727967    -0.025338102    29.271523      29.500729      28.804513      24873.597      0.004         -4809.0764    
       500   305.88953      0.17925055     0.13403606     29.300677      29.599422      28.910367      25073.473      0.005         -1769.0654    
       600   294.88348      0.086871381   -0.033220794    29.329832      29.490335      29.102564      25172.163      0.006         -857.35387    
       700   304.44171      0.075650428    0.088131428    29.358987      29.676471      29.064583      25323.132      0.007         -746.61168    
       800   304.72871     -0.29251522    -0.0018995277   29.388142      29.811301      28.571336      25031.312      0.008          2886.9008    
       900   298.13377     -0.27098706     0.012557623    29.417297      29.650532      28.528496      24883.653      0.009          2674.4343    
      1000   298.44698     -0.050422806    0.0072861784   29.446452      29.449652      28.922306      25081.07       0.01           497.63441    
      1100   298.1225      -0.36281062     0.021142142    29.475607      29.449853      28.97953       25155.747      0.011          3580.6625    
      1200   302.09016      0.11405376    -0.070999508    29.504762      29.569037      28.946033      25253.313      0.012         -1125.6231    
      1300   292.7558      -0.079386193    0.065939797    29.533917      29.754344      29.036248      25515.961      0.013          783.48081    
      1400   292.86541      0.032522539    0.068473058    29.563072      29.480512      28.867559      25159.073      0.014         -320.9725     
      1500   302.35151     -0.17148582     0.047407156    29.592226      29.26126       28.948798      25066.933      0.015          1692.4334    
      1600   304.23587     -0.079940654    0.13908607     29.621381      29.268794      28.94721       25096.713      0.016          788.95291    
      1700   298.20857     -0.054841358   -0.0018169679   29.650536      29.176359      29.070588      25148.811      0.017          541.24213    
      1800   289.91205      0.3154788      0.098387506    29.679691      29.193769      29.075854      25193.124      0.018         -3113.5337    
      1900   306.68241     -0.082693866    0.080676131    29.708846      29.135166      29.132564      25216.336      0.019          816.12501    
      2000   300.00333     -0.16011517    -0.058272187    29.738001      28.945842      29.184445      25121.722      0.02           1580.2139    
      2100   297.19167      0.19993417     0.11759216     29.767156      29.013465      29.275177      25283.457      0.021         -1973.1968    
      2200   306.36769      0.33131711     0.069343583    29.796311      29.012566      29.355338      25376.734      0.022         -3269.8457    
      2300   303.52634      0.41770405     0.11067117     29.825466      28.958818      29.086426      25122.244      0.023         -4122.4185    
      2400   300.73442     -0.26377009     0.12918432     29.854621      29.031467      29.002237      25136.918      0.024          2603.2083    
      2500   297.09915     -0.24716155    -0.02796844     29.883775      28.89416       29.021497      25059.093      0.025          2439.2948    
      2600   302.24671      0.0078988578   0.033590149    29.91293       28.757939      29.176809      25098.89       0.026         -77.955666    
      2700   301.08856      0.1437165      0.053196406    29.942085      28.871168      29.382624      25400.19       0.027         -1418.3716    
      2800   290.95494      0.15843775    -0.045296852    29.97124       28.923457      29.07077       25200.634      0.028         -1563.659     
      2900   297.70072     -0.022804851    0.014464723    30.000395      28.903257      28.946824      25100.055      0.029          225.06638    
      3000   298.36529     -0.17403711    -0.05802312     30.02955       28.868368      28.990633      25132.099      0.03           1717.6127    
      3100   302.77308     -0.037953015    0.11086621     30.058705      28.810436      29.065766      25171.08       0.031          374.56714    
      3200   304.84348      0.098558688    0.0092553798   30.08786       29.051112      28.928854      25286.3        0.032         -972.69863    
      3300   299.34113      0.1996388      0.0095236964   30.117015      29.136562      28.767537      25243.694      0.033         -1970.2818    
      3400   305.01079      0.17862429     0.12775543     30.14617       29.476453      28.390203      25227.595      0.034         -1762.8847    
      3500   300.95679     -0.11708637     0.10116107     30.175325      29.206836      28.5775        25186.087      0.035          1155.5526    
      3600   289.39501     -0.08125433     0.026018936    30.204479      28.856269      28.597107      24924.912      0.036          801.91789    
      3700   305.56162      0.084952177    0.033380791    30.233634      28.896285      28.825102      25182.753      0.037         -838.4128     
      3800   304.25672     -0.24847136     0.054455722    30.262789      28.902747      28.690697      25095.115      0.038          2452.2216    
      3900   297.41298      0.20935319     0.027116293    30.291944      29.153997      28.76259       25401.143      0.039         -2066.1553    
      4000   295.64629      0.033047029    0.071331391    30.321099      28.858111      28.663119      25080.505      0.04          -326.14882    
      4100   300.30669     -0.20037878     0.0284107      30.350254      28.683251      28.744169      25023.063      0.041          1977.5848    
      4200   302.03623      0.24862113     0.05680021     30.379409      28.712939      28.845645      25161.54       0.042         -2453.6998    
      4300   296.81198      0.019682309    0.17166778     30.408564      28.60227       28.993316      25217.05       0.043         -194.24929    
      4400   304.42222     -0.061113509    0.02133454     30.437719      28.701372      28.986309      25322.564      0.044          603.14344    
      4500   299.74183      0.21646014     0.11058124     30.466874      28.379237      29.18721       25236.039      0.045         -2136.2955    
      4600   289.7049      -0.0044000776   0.012053664    30.496028      28.382685      29.443203      25484.834      0.046          43.42539     
      4700   302.26994     -0.024461711    0.050483007    30.525183      28.697129      29.09056       25482.898      0.047          241.41831    
      4800   304.30227      0.06202009     0.13861009     30.554338      28.808474      29.060827      25580.033      0.048         -612.0907     
      4900   297.27489     -0.062747931    0.030912919    30.583493      28.687096      28.639683      25127.072      0.049          619.27393    
      5000   299.02162     -0.0164622      0.093078493    30.612648      28.413115      28.755616      25011.655      0.05           162.46928    
      5100   303.74746     -0.19232123     0.15379372     30.641803      28.7257        28.961295      25491.941      0.051          1898.0629    
      5200   304.97219     -0.27894409    -0.045499696    30.670958      28.824566      28.500671      25196.788      0.052          2752.9642    
      5300   294.01796      0.026348486    0.045572297    30.700113      28.773384      28.44868       25130.032      0.053         -260.03934    
      5400   301.57782      0.12966924     0.028174933    30.729268      28.758301      28.471928      25161.256      0.054         -1279.7359    
      5500   297.67059     -0.13203282    -0.056732907    30.758423      28.837924      28.18495       25000.305      0.055          1303.0626    
      5600   288.54977      0.032893265    0.0085951795   30.787577      28.958667      28.128891      25078.797      0.056         -324.63129    
      5700   300.17608      0.02015583     0.11269029     30.816732      28.793609      28.281039      25094.471      0.057         -198.92257    
      5800   299.88287     -0.0050951101   0.046597499    30.845887      28.85148       28.512016      25374.254      0.058          50.284827    
      5900   294.56276      0.30963557    -0.0028519214   30.875042      28.849275      28.652538      25521.463      0.059         -3055.8655    
      6000   302.36777      0.21660791     0.22689571     30.904197      28.703048      28.658965      25421.781      0.06          -2137.7539    
      6100   300.83824     -0.18031965     0.038141623    30.933352      28.322546      28.658246      25107.813      0.061          1779.6166    
      6200   293.45958      0.0072275081   0.11828842     30.962507      28.437757      28.537769      25127.627      0.062         -71.329959    
      6300   297.78536     -0.28396388    -0.017392316    30.991662      28.571636      28.310334      25068.304      0.063          2802.5056    
      6400   306.16514     -0.3553195      0.017207348    31.020817      28.608222      28.278504      25095.77       0.064          3506.7308    
      6500   301.78586      0.19186534     0.058592446    31.049972      28.354373      28.495949      25087.904      0.065         -1893.5637    
      6600   307.48173      0.34662239     0.038581515    31.079126      28.456264      28.673907      25359.084      0.066         -3420.8971    
      6700   294.05518      0.54345115     0.13873465     31.108281      28.336382      28.866076      25445.335      0.067         -5363.4459    
      6800   295.85928     -0.41339496     0.071163916    31.137436      28.190148      28.783393      25265.169      0.068          4079.8911    
      6900   304.6875       0.14031726     0.021296018    31.166591      28.055995      28.750514      25139.729      0.069         -1384.8237    
      7000   301.38313      0.015360785    0.13691414     31.195746      27.94037       28.783894      25088.637      0.07          -151.59916    
      7100   300.32958      0.12890156     0.021222036    31.224901      28.129962      28.552662      25079.381      0.071         -1272.1595    
      7200   298.94613      0.10774536     0.1038692      31.254056      28.066075      28.800879      25263.517      0.072         -1063.364     
      7300   302.46065      0.12344694    -0.017764961    31.283211      28.282682      28.883647      25555.474      0.073         -1218.3265    
      7400   296.12551      0.055664071    0.020277217    31.312366      28.314434      28.596706      25353.608      0.074         -549.36166    
      7500   301.26116      0.22512963     0.093812618    31.341521      28.079991      28.827988      25370.636      0.075         -2221.8567    
      7600   299.33004     -0.13803366     0.040583683    31.370676      27.97534       28.737632      25220.299      0.076          1362.2863    
      7700   300.18445     -0.22273384    -0.053448494    31.39983       28.020676      28.772105      25314.977      0.077          2198.2121    
      7800   295.39879      0.13516936     0.068074476    31.428985      27.951715      28.950158      25432.541      0.078         -1334.0179    
      7900   300.94761      0.073435788    0.075142844    31.45814       27.995595      28.696371      25272.589      0.079         -724.75488    
      8000   303.05474      0.016302769    0.027159002    31.487295      28.202574      28.815098      25588.464      0.08          -160.89582    
      8100   306.00959     -0.068427449    0.070283285    31.51645       28.188347      28.901413      25675.918      0.081          675.32642    
      8200   303.13532      0.10731316     0.05758924     31.545605      28.080898      28.784885      25498.483      0.082         -1059.0985    
      8300   312.09372      0.10370314     0.090160229    31.57476       27.765333      28.691081      25153.004      0.083         -1023.4704    
      8400   300.06675      0.37866463     0.14044587     31.603915      27.671621      28.734835      25129.52       0.084         -3737.1293    
      8500   299.1055      -0.010432144    0.083427072    31.63307       27.71052       28.655318      25118.357      0.085          102.95726    
      8600   307.87358     -0.094461089    0.09883198     31.662225      27.944157      28.572219      25279.961      0.086          932.25847    
      8700   302.22036      0.42316953     0.10892803     31.691379      28.206188      28.622285      25585.26       0.087         -4176.3586    
      8800   296.41435     -0.0043538623   0.075008025    31.720534      28.283373      28.404413      25483.409      0.088          42.96928     
      8900   301.36108      0.13589782     0.038126623    31.749689      28.407341      28.357193      25576.04       0.089         -1341.2072    
      9000   297.45631      0.14500361     0.067813586    31.778844      28.032277      28.500138      25388.874      0.09          -1431.0744    
      9100   295.76817      0.14704711     0.095838968    31.807999      28.004664      28.26757       25179.969      0.091         -1451.2422    
      9200   297.13005      0.12690039    -0.065326494    31.837154      28.046992      28.391118      25351.463      0.092         -1252.4095    
      9300   298.77226     -0.0018132652   0.051263665    31.866309      28.226437      28.197798      25363.14       0.093          17.895536    
      9400   301.37245      0.35828366     0.12365999     31.895464      28.117802      28.352142      25427.061      0.094         -3535.9848    
      9500   299.84424      0.38838256     0.14106967     31.924619      28.19966       28.393225      25561.382      0.095         -3833.0378    
      9600   303.78853      0.020814934    0.049881279    31.953774      28.10432       28.321144      25433.494      0.096         -205.42743    
      9700   294.60011      0.014181896    0.11090046     31.982928      28.042536      28.35145       25427.917      0.097         -139.96443    
      9800   292.72112     -0.071472261    0.051759194    32.012083      27.777514      28.53284       25371.861      0.098          705.37637    
      9900   301.17237      0.0093739142   0.071104847    32.041238      27.907241      28.655236      25623.013      0.099         -92.51334     
     10000   296.04761      0.2260364      0.061819409    32.070393      27.917783      28.539851      25552.707      0.1           -2230.8059    
     10100   295.04701     -0.21660777     0.17011036     32.099548      28.173888      28.302104      25595.547      0.101          2137.7524    
     10200   298.62246     -0.087286034    0.027300992    32.128703      27.9062        28.566669      25612.59       0.102          861.44617    
     10300   298.64482      0.31730542     0.19439462     32.157858      27.72693       28.859195      25731.974      0.103         -3131.561     
     10400   298.28845      0.0049588287   0.20079259     32.187013      27.418322      28.895902      25501.034      0.104         -48.939834    
     10500   304.4858       0.066679383    0.064141393    32.216168      27.613381      28.729927      25558.066      0.105         -658.07435    
     10600   299.97474      0.16720628     0.099936007    32.245323      27.605661      28.660393      25512.148      0.106         -1650.1977    
     10700   307.88162     -0.20530036     0.064331068    32.274478      27.640971      28.627874      25538.866      0.107          2026.157     
     10800   298.29136      0.034664877    0.038346334    32.303632      27.622424      28.719787      25626.799      0.108         -342.11573    
     10900   301.4389       0.36363706     0.20718223     32.332787      27.695794      28.635289      25642.391      0.109         -3588.8188    
     11000   303.27808     -0.55127498     0.02484629     32.361942      27.621261      28.632936      25594.341      0.11           5440.6611    
     11100   300.50315     -0.15423783     0.088731145    32.391097      27.702949      28.530843      25601.551      0.111          1522.2091    
     11200   297.83491     -0.1256439      0.053741233    32.420252      27.639707      28.401059      25449.799      0.112          1240.0089    
     11300   311.32607      0.075151792    0.095929316    32.449407      27.545449      28.534158      25504.786      0.113         -741.69052    
     11400   297.87045     -0.045862717    0.035403325    32.478562      27.611837      28.43749       25502.535      0.114          452.62983    
     11500   301.06246     -0.044157885    0.097051024    32.507717      27.784829      28.474131      25718.443      0.115          435.80444    
     11600   304.85384     -0.067169859    0.20375153     32.536872      27.686132      28.168766      25374.992      0.116          662.91497    
     11700   300.56242      0.10677819     0.05952746     32.566027      27.877025      27.947468      25371.94       0.117         -1053.8188    
     11800   301.43626      0.013692086    0.085742498    32.595181      27.920403      27.974689      25458.942      0.118         -135.13038    
     11900   301.60877      0.0084244105   0.16662028     32.624336      27.971433      27.829792      25396.061      0.119         -83.142467    
     12000   299.45115      0.088214779    0.12828178     32.653491      28.102544      27.726029      25442.684      0.12          -870.61217    
     12100   302.65572      0.1126878      0.027193396    32.682646      27.916607      27.807924      25371.633      0.121         -1112.1421    
     12200   296.24544     -0.05105759     0.028330709    32.711801      28.03977       27.950432      25637.013      0.122          503.89923    
     12300   295.37667      0.24696656     0.1839383      32.740956      28.07645       27.753053      25511.989      0.123         -2437.3705    
     12400   302.90636     -0.19819568     0.23241713     32.770111      27.926967      27.622561      25279.334      0.124          1956.0393    
     12500   302.62592     -0.19595984     0.018835144    32.799266      27.794303      27.687899      25241.195      0.125          1933.9733    
     12600   299.85301      0.43974301     0.056325467    32.828421      27.638314      27.811552      25234.039      0.126         -4339.9261    
     12700   297.69943     -0.083569558    0.043994898    32.857576      27.562375      27.754455      25135.345      0.127          824.76741    
     12800   301.53873      0.089416648    0.10439464     32.88673       27.635012      28.044452      25487.504      0.128         -882.4737     
     12900   298.53231      0.070261713    0.019821395    32.915885      27.314867      28.119935      25282.438      0.129         -693.4292     
     13000   295.82648      0.098759211    0.064585577    32.94504       27.369196      28.101244      25338.309      0.13          -974.67763    
     13100   302.4082       0.068732367    0.041272418    32.974195      27.509421      27.792507      25210.611      0.131         -678.33572    
     13200   301.5951       0.1033287      0.12815103     33.00335       27.456846      27.963261      25339.41       0.132         -1019.775     
     13300   300.8691       0.22907311     0.15208457     33.032505      27.388738      28.003473      25335.264      0.133         -2260.7758    
     13400   305.24633      0.22303781     0.10947999     33.06166       27.660246      27.983479      25590.713      0.134         -2201.212     
     13500   297.51359     -0.002212861    0.11851551     33.090815      27.561701      28.028723      25563.293      0.135          21.83924     
     13600   302.71938     -0.044461541   -0.023327507    33.11997       27.391729      27.9855        25388.816      0.136          438.80129    
     13700   298.90776     -0.042565574    0.041316076    33.149125      27.317303      27.827902      25199.409      0.137          420.08956    
     13800   295.18777      0.1402641      0.06408052     33.17828       27.189095      27.940166      25204.472      0.138         -1384.299     
     13900   298.33465      0.044730183    0.090649987    33.207434      27.071141      28.173346      25326.799      0.139         -441.45258    
     14000   302.21433      0.47629684     0.15652018     33.236589      26.965945      28.25165       25320.712      0.14          -4700.6844    
     14100   293.54825      0.015218819    0.13987907     33.265744      26.779087      28.332443      25239.284      0.141         -150.19806    
     14200   295.3796      -0.0079549275   0.14454724     33.294899      26.727196      28.627465      25474.989      0.142          78.50903     
     14300   307.36973     -0.066434723    0.070677691    33.324054      26.878312      28.615981      25631.171      0.143          655.65974    
     14400   298.81771     -0.089762495    0.079732232    33.353209      27.025842      28.527592      25714.731      0.144          885.88695    
     14500   293.55681     -0.15877768     0.14710125     33.382364      27.024572      28.395563      25616.889      0.145          1567.0139    
     14600   302.98462     -0.18139503     0.11987205     33.411519      27.145326      28.380976      25740.597      0.146          1790.2297    
     14700   302.33299      0.16807161     0.07247012     33.440674      27.111225      28.391525      25740.257      0.147         -1658.7378    
     14800   293.57745     -0.16166912     0.1318083      33.469829      27.291516      28.293022      25844.045      0.148          1595.5501    
     14900   302.85165      0.11145972     0.11796875     33.498983      27.058912      28.316483      25667.364      0.149         -1100.0219    
     15000   296.8086       0.24151764     0.11381828     33.528138      26.901365      28.422256      25635.531      0.15          -2383.5938    
     15100   292.49201      0.34846311     0.13766868     33.557293      26.765255      28.494636      25593.013      0.151         -3439.0635    
     15200   305.22794      0.33791773     0.13564888     33.586448      26.983651      28.402461      25740.725      0.152         -3334.9887    
     15300   294.73932      0.50367992     0.17095164     33.615603      27.128693      28.349231      25853.007      0.153         -4970.9343    
     15400   300.68552      0.19165933     0.11908439     33.644758      27.078565      28.421188      25893.174      0.154         -1891.5306    
     15500   302.62619     -0.05003333     0.13406304     33.673913      26.864651      28.383766      25677.031      0.155          493.79058    
     15600   297.45337      0.24972474     0.15020481     33.703068      26.853969      28.50193       25795.989      0.156         -2464.5915    
     15700   297.62752      0.026686988    0.079414717    33.732223      26.713842      28.513424      25693.938      0.157         -263.38009    
     15800   306.11932      0.039846916    0.15552563     33.761378      26.594795      28.510603      25599.013      0.158         -393.25848    
     15900   304.14235     -0.29221182     0.16579882     33.790532      26.532467      28.400388      25462.26       0.159          2883.9064    
     16000   291.81775     -0.067397403    0.10854441     33.819687      26.582674      28.572917      25687.558      0.16           665.16065    
     16100   298.39118     -0.07412652     0.12824503     33.848842      26.750601      28.373263      25691.334      0.161          731.57187    
     16200   301.25794     -0.071828276    0.14708803     33.877997      26.680477      28.490239      25751.789      0.162          708.88997    
     16300   298.42727      0.31961693     0.10782137     33.907152      26.947463      28.506196      26046.445      0.163         -3154.3738    
     16400   304.32495      0.37860713     0.14269142     33.936307      26.738244      28.345513      25720.64       0.164         -3736.5618    
     16500   300.0073       0.15904945     0.20254902     33.965462      26.559426      28.264612      25497.596      0.165         -1569.696     
     16600   298.07755      0.49556028     0.17001171     33.994617      26.726076      28.263512      25678.608      0.166         -4890.7997    
     16700   300.65033      0.31843741     0.26849952     34.023772      26.816682      28.094064      25633.156      0.167         -3142.7329    
     16800   297.7162       0.061868657    0.16230935     34.052927      27.020679      27.976797      25742.38       0.168         -610.59617    
     16900   291.96836      0.28786429     0.17033526     34.082081      27.020284      28.037035      25819.517      0.169         -2840.9997    
     17000   304.72526      0.14714334     0.079939572    34.111236      26.769102      28.233538      25780.81       0.17          -1452.1919    
     17100   303.50722      0.20267629     0.16268159     34.140391      26.809391      28.248853      25855.697      0.171         -2000.2594    
     17200   297.76574      0.15942363     0.12566036     34.169546      26.811921      28.331756      25956.171      0.172         -1573.3889    
     17300   297.64253      0.029736017    0.057431337    34.198701      26.848159      28.085217      25787.065      0.173         -293.47167    
     17400   299.99717      0.14392686     0.14205754     34.227856      26.703268      28.241596      25812.694      0.174         -1420.4476    
     17500   304.94612      0.012139824    0.28083154     34.257011      26.506724      28.116483      25530.923      0.175         -119.81074    
     17600   291.87091      0.080321572    0.068310619    34.286166      26.591339      28.083217      25603.892      0.176         -792.71228    
     17700   303.98928      0.090405294    0.1739835      34.315321      26.345389      28.199628      25493.887      0.177         -892.23088    
     17800   297.00054     -0.032150253    0.075078859    34.344476      26.35207       28.530288      25821.281      0.178          317.29832    
     17900   296.09887     -0.0581412      0.10359753     34.373631      26.506275      28.445078      25916.791      0.179          573.80903    
     18000   301.56465      0.24524377     0.066967017    34.402785      26.679847      28.31689       25990.971      0.18          -2420.3678    
     18100   293.78121      0.093500036    0.17884641     34.43194       26.655031      28.310803      25983.214      0.181         -922.77361    
     18200   295.63644     -0.093058506    0.078547457    34.461095      26.541664      28.22546       25816.552      0.182          918.41605    
     18300   306.61649     -0.18086835     0.061551726    34.49025       26.54896       28.200939      25823.043      0.183          1785.0319    
     18400   300.49568      0.1775002      0.078120152    34.519405      26.721798      28.062018      25884.983      0.184         -1751.7908    
     18500   293.56274     -0.034432231    0.032720365    34.54856       26.704671      28.059831      25888.222      0.185          339.8197     
     18600   299.1003       0.33047207     0.10671153     34.577715      26.618953      27.937876      25714.651      0.186         -3261.5058    
     18700   296.5185       0.046062368    0.24341952     34.60687       26.666584      27.841773      25693.696      0.187         -454.60023    
     18800   296.22142     -0.1322775      0.0033789099   34.636025      26.756645      27.856474      25815.815      0.188          1305.4775    
     18900   304.55737     -0.05904224     0.098488284    34.66518       26.860264      27.673875      25767.584      0.189          582.70161    
     19000   296.64883      0.12903597     0.14867332     34.694334      26.739659      27.776389      25768.564      0.19          -1273.486     
     19100   298.78405     -0.11104848     0.082580654    34.723489      26.386031      27.67901       25359.926      0.191          1095.9633    
     19200   307.91204     -0.028341831    0.06125322     34.752644      26.298738      27.925182      25522.24       0.192          279.71213    
     19300   297.17355      0.079783351    0.095083222    34.781799      26.348572      28.077278      25731.442      0.193         -787.40045    
     19400   303.11851      0.0079045801   0.15353765     34.810954      26.24973       28.030931      25614.052      0.194         -78.01214     
     19500   297.8743       0.16434374     0.24325355     34.840109      26.151638      28.056918      25563.385      0.195         -1621.9466    
     19600   297.27594      0.18833117     0.035380862    34.869264      26.18915       28.198743      25750.99       0.196         -1858.6841    
     19700   304.29662     -0.11510216     0.074408708    34.898419      26.057768      28.010804      25472.321      0.197          1135.97      
     19800   301.28916      0.064961966    0.040329891    34.927574      26.245928      27.832367      25514.114      0.198         -641.12476    
     19900   298.28395      0.11007298     0.1584267      34.956729      26.291822      27.808137      25557.794      0.199         -1086.3359    
     20000   303.84887      0.0093105232   0.17975887     34.985883      26.196472      28.159826      25808.67       0.2           -91.887719    
     20100   294.80656     -0.084458604    0.033209831    35.015038      26.323717      27.824683      25646.733      0.201          833.54162    
     20200   298.48265      0.10736364     0.030806273    35.044193      26.226333      27.830491      25578.467      0.202         -1059.5967    
     20300   301.23737      0.10934046     0.18905989     35.073348      26.282281      27.893875      25712.786      0.203         -1079.1064    
     20400   294.10979      0.1652335      0.12865761     35.102503      26.363491      28.196009      26093.278      0.204         -1630.7278    
     20500   303.28163      0.2289557      0.057763513    35.131658      26.314695      28.188876      26060.02       0.205         -2259.6171    
     20600   294.66826      0.068250044    0.12137807     35.160813      26.282406      28.100552      25968.022      0.206         -673.57556    
     20700   303.14083      0.076031911    0.1799508      35.189968      26.226655      28.029942      25869.258      0.207         -750.37662    
     20800   302.64675      0.042652239    0.12727368     35.219123      25.971407      28.079072      25683.651      0.208         -420.94487    
     20900   299.3795      -0.049879207    0.18347216     35.248278      26.261887      27.921856      25846.879      0.209          492.2695     
     21000   303.51932      0.046131527    0.075266925    35.277433      26.376671      27.910203      25970.479      0.21          -455.28277    
     21100   298.94986      0.21874981     0.11746679     35.306587      26.279953      28.029055      26006.912      0.211         -2158.8928    
     21200   299.97611      0.11019383     0.12883067     35.335742      25.951849      28.152444      25816.576      0.212         -1087.5285    
     21300   310.75762      0.2557785      0.10607911     35.364897      26.250461      27.863324      25866.773      0.213         -2524.3375    
     21400   298.11486      0.13992878     0.15009478     35.394052      26.424869      27.629614      25841.513      0.214         -1380.9897    
     21500   296.16042      0.022426187    0.091078672    35.423207      26.472596      27.652598      25931.065      0.215         -221.32925    
     21600   304.25028      0.41974795     0.15497015     35.452362      26.420848      27.893908      26127.706      0.216         -4142.5902    
     21700   300.66263      0.17272783     0.087000842    35.481517      26.255295      27.878006      25970.528      0.217         -1704.6911    
     21800   300.11426      0.1578683      0.064440254    35.510672      26.247289      27.738988      25854.369      0.218         -1558.039     
     21900   297.12268      0.24879229     0.11756752     35.539827      26.146036      27.82482       25855.535      0.219         -2455.389     
     22000   302.95408      0.20986291     0.044827618    35.568982      26.026243      27.910577      25837.574      0.22          -2071.1859    
     22100   295.58758      0.24966521     0.10111476     35.598136      26.13726       28.056406      26104.739      0.221         -2464.0041    
     22200   303.34689      0.061462714    0.10399659     35.627291      26.087859      28.127721      26143.022      0.222         -606.58982    
     22300   303.74476      0.33712189     0.19977815     35.656446      26.087627      27.960271      26008.422      0.223         -3327.1344    
     22400   304.53708      0.19761687     0.16500383     35.685601      26.165359      27.978272      26124.056      0.224         -1950.3269    
     22500   299.58255     -0.013958602    0.16183827     35.714756      26.367691      27.795188      26175.163      0.225          137.76069    
     22600   301.53519     -0.060499204    0.10077469     35.743911      26.113007      27.765488      25915.779      0.226          597.08072    
     22700   295.12976      0.18690482     0.070388762    35.773066      26.157129      27.700699      25920.117      0.227         -1844.6071    
     22800   293.89708      0.23434201     0.12263126     35.802221      26.358427      27.80977       26243.807      0.228         -2312.7758    
     22900   302.50454      0.24002975     0.21448486     35.831376      26.27179       27.891531      26255.815      0.229         -2368.9094    
     23000   298.61441      0.10723766     0.046455774    35.860531      26.246857      27.739465      26109.112      0.23          -1058.3534    
     23100   294.97029      0.29355312     0.23141012     35.889685      26.365304      27.42022       25946.176      0.231         -2897.1441    
     23200   305.12674      0.057295652    0.20956419     35.91884       26.613398      27.35723       26151.388      0.232         -565.46412    
     23300   300.90599      0.32117333     0.07152611     35.947995      26.598535      27.338573      26140.159      0.233         -3169.7344    
     23400   294.1492       0.27108452     0.089018393    35.97715       26.397261      27.373334      25996.407      0.234         -2675.3962    
     23500   304.95779      0.35285418     0.26679445     36.006305      26.295491      27.722939      26248.175      0.235         -3482.4       
     23600   297.35808      0.12167942     0.078385312    36.03546       26.286966      27.64674       26188.731      0.236         -1200.8825    
     23700   301.82668      0.1726919      0.18829122     36.064615      26.356215      27.767219      26393.484      0.237         -1704.3365    
     23800   305.17627      0.10185273     0.071961915    36.09377       26.407781      27.822327      26519.029      0.238         -1005.2083    
     23900   302.50897     -0.039675179    0.091247179    36.122925      26.219995      27.718984      26253.839      0.239          391.56357    
     24000   297.70826      0.2611507      0.05902559     36.15208       26.146769      27.607638      26096.398      0.24          -2577.357     
     24100   302.37589      0.1986743      0.11184797     36.181235      26.041419      27.637528      26040.374      0.241         -1960.7629    
     24200   294.30008     -0.19355012     0.082006709    36.210389      26.016443      27.222006      25644.913      0.242          1910.1912    
     24300   295.81392     -0.092657783    0.13542679     36.239544      26.079572      27.467572      25959.926      0.243          914.46122    
     24400   307.81967     -0.039630946    0.074962452    36.268699      26.375904      27.406061      26217.179      0.244          391.12702    
     24500   302.44452     -0.066677363    0.15388194     36.297854      26.393855      27.340531      26193.33       0.245          658.05441    
     24600   297.98108      0.17923604     0.1092676      36.327009      26.1974        27.211884      25896.82       0.246         -1768.9222    
     24700   292.27359     -0.20146127     0.10950389     36.356164      26.059356      27.337938      25900.46       0.247          1988.2681    
     24800   294.26468      0.45656362     0.1173701      36.385319      26.290756      27.489492      26296.381      0.248         -4505.9326    
     24900   304.00815      0.072408803    0.13744222     36.414474      26.323036      27.452202      26314.02       0.249         -714.61932    
     25000   306.17828      0.17240402     0.037508672    36.443629      26.293339      27.519011      26369.396      0.25          -1701.4954    
     25100   297.40692      0.10923848     0.18098983     36.472784      26.149433      27.404937      26137.256      0.251         -1078.1       
     25200   302.24959      0.21086298     0.078735224    36.501938      26.220979      27.394224      26219.465      0.252         -2081.0559    
     25300   307.23703      0.1064872      0.16068661     36.531093      26.327089      27.287181      26243.646      0.253         -1050.9469    
     25400   299.12755      0.010565105    0.1487485      36.560248      26.243795      27.111581      26013.01       0.254         -104.26947    
     25500   293.45373      0.046487094    0.055436352    36.589403      26.437251      26.799678      25923.951      0.255         -458.79194    
     25600   294.4426      -0.030873129    0.072050551    36.618558      26.496051      26.989071      26186.07       0.256          304.6941     
     25700   298.95608     -0.068611564    0.11082588     36.647713      26.55302       26.980482      26254.908      0.257          677.14348    
     25800   295.70137      0.34041223     0.11630285     36.676868      26.315289      27.100536      26156.417      0.258         -3359.6075    
     25900   295.79264     -0.14915806     0.12122832     36.706023      25.932007      27.423475      26103.332      0.259          1472.0756    
     26000   300.9721      -0.05580944     0.029580599    36.735178      25.763008      27.540825      26064.876      0.26           550.79635    
     26100   298.4422       0.33063829     0.081449423    36.764333      25.86108       27.444944      26093.701      0.261         -3263.1462    
     26200   293.03103      0.33652162     0.18256405     36.793487      25.976168      27.443281      26229.021      0.262         -3321.2102    
     26300   308.29625      0.4839983      0.091492709    36.822642      26.280956      27.510391      26622.748      0.263         -4776.6918    
     26400   299.11407     -0.11645204     0.12193271     36.851797      26.221681      27.264895      26346.506      0.264          1149.2922    
     26500   294.47705      0.17822696     0.092755607    36.880952      26.246589      27.199389      26328.986      0.265         -1758.9633    
     26600   302.06211      0.1591605      0.14513842     36.910107      26.365357      26.975324      26250.986      0.266         -1570.792     
     26700   306.45496     -0.11679725     0.10532534     36.939262      26.221825      26.848834      26006.18       0.267          1152.6992    
     26800   297.31544      0.06987129     0.15008957     36.968417      26.324577      27.12936       26401.695      0.268         -689.57602    
     26900   293.70935      0.12495832     0.070851495    36.997572      26.379278      26.881724      26235.736      0.269         -1233.2427    
     27000   297.96919      0.27110098     0.067852811    37.026727      26.39593       26.98901       26377.841      0.27          -2675.5586    
     27100   294.25676      0.33315762     0.083810135    37.055882      25.977587      27.25902       26240.143      0.271         -3288.01      
     27200   300.11552     -0.044119662    0.15246089     37.085036      26.18507       27.052861      26270.337      0.272          435.42721    
     27300   296.06         0.36189786     0.12882481     37.114191      26.418687      27.111326      26582.878      0.273         -3571.6541    
     27400   297.30709      0.054420525    0.11051056     37.143346      26.433752      26.902971      26414.36       0.274         -537.08882    
     27500   301.75861     -0.081716928    0.12734744     37.172501      26.271109      27.039629      26405.896      0.275          806.48338    
     27600   300.56632      0.017120701    0.11696859     37.201656      26.250893      27.182858      26546.146      0.276         -168.96818    
     27700   293.03214     -0.17729418     0.075308722    37.230811      26.153407      27.025506      26315.074      0.277          1749.7576    
     27800   307.73376     -0.032993645    0.0085782373   37.259966      26.297137      26.843766      26302.338      0.278          325.62195    
     27900   295.21374      0.33552583     0.14126078     37.289121      26.654675      26.937909      26774.38       0.279         -3311.3825    
     28000   300.80845      0.26003397     0.05832546     37.318276      26.637841      26.893997      26734.739      0.28          -2566.3358    
     28100   307.06079      0.018821463   -0.011043053    37.347431      26.275036      27.11527       26608.352      0.281         -185.75339    
     28200   303.98919      0.1882269      0.13731818     37.376586      26.04861       27.260491      26541.034      0.282         -1857.6551    
     28300   294.99422      0.15621144     0.0046168951   37.40574       25.896626      27.36189       26504.983      0.283         -1541.6871    
     28400   293.30434      0.039846195    0.06324127     37.434895      26.070125      27.321418      26663.857      0.284         -393.25137    
     28500   297.21488     -0.0031629568   0.158115       37.46405       26.016627      27.317052      26625.609      0.285          31.215957    
     28600   303.98296     -0.0049592088   0.17213955     37.493205      26.043875      27.195123      26555.177      0.286          48.943586    
     28700   299.31357     -0.025719245    0.13356138     37.52236       26.0971        27.387867      26818.878      0.287          253.82922    
     28800   300.4317       0.0093397746   0.18746684     37.551515      25.653142      27.338057      26335.143      0.288         -92.176408    
     28900   305.20209      0.0061242666   0.057561176    37.58067       25.684668      27.340489      26390.326      0.289         -60.441812    
     29000   302.80316      0.1225956      0.06636257     37.609825      25.82826       27.344744      26562.584      0.29          -1209.9245    
     29100   301.23299     -0.039624756    0.10797799     37.63898       25.667162      27.203556      26280.969      0.291          391.06593    
     29200   289.10984      0.15328364     0.045269601    37.668135      25.557397      27.188688      26174.535      0.292         -1512.7919    
     29300   294.55079      0.0026779287   0.12297394     37.697289      25.832326      26.938797      26233.234      0.293         -26.429102    
     29400   299.54857      0.39142837     0.15330931     37.726444      26.050131      26.996637      26531.723      0.294         -3863.0977    
     29500   290.38314     -0.11509212     0.10107094     37.755599      25.944863      27.048649      26495.878      0.295          1135.8709    
     29600   300.28246     -0.12595999     0.13052144     37.784754      25.731758      27.036908      26287.125      0.296          1243.1285    
     29700   292.52748     -0.0709653      0.06592427     37.813909      25.793382      26.941314      26277.173      0.297          700.37306    
     29800   299.93774      0.28376545     0.1778323      37.843064      25.645516      27.135839      26335.465      0.298         -2800.5473    
     29900   300.49658     -0.17804153     0.11683878     37.872219      25.575231      27.202607      26348.193      0.299          1757.1333    
     30000   300.7226       0.020344297    0.034171231    37.901374      25.468627      27.22302       26278.271      0.3           -200.7826     
     30100   298.80642      0.058079222   -0.033166573    37.930529      25.54185       26.922548      26082.992      0.301         -573.19735    
     30200   306.17153     -0.059471808    0.12091429     37.959684      25.457477      26.857681      25954.129      0.302          586.94111    
     30300   297.16966      0.25438256     0.035160044    37.988838      25.417121      26.945937      26018.105      0.303         -2510.5607    
     30400   302.59357     -0.08822561     0.14338854     38.017993      25.439799      26.856806      25975.1        0.304          870.71907    
     30500   302.74094     -0.042749373   -0.045826765    38.047148      25.56909       26.604137      25881.328      0.305          421.90351    
     30600   297.13568     -0.13100092     0.13003104     38.076303      25.384846      26.723553      25829.947      0.306          1292.8785    
     30700   303.22531      0.077293694    0.024099669    38.105458      25.264181      27.145422      26132.985      0.307         -762.82945    
     30800   301.9203       0.34143939     0.20070534     38.134613      25.26083       26.931661      25943.591      0.308         -3369.7448    
     30900   295.05146      0.27920845     0.12811649     38.163768      25.144672      26.773544      25692.306      0.309         -2755.5732    
     31000   291.04124      0.13299641     0.064756092    38.192923      25.393267      26.78044       25972.824      0.31          -1312.5725    
     31100   301.75385     -0.11805267     0.13340128     38.222078      25.581886      26.68718       26094.533      0.311          1165.0893    
     31200   299.51133     -0.055618294    0.012798791    38.251233      25.559614      26.927473      26326.633      0.312          548.90989    
     31300   299.66064      0.17799325     0.18314281     38.280388      25.457191      26.940634      26253.948      0.313         -1756.6568    
     31400   299.15528     -0.12874982     0.10231992     38.309542      25.392416      26.716846      25989.395      0.314          1270.6619    
     31500   301.37987      0.27930889    -0.056494873    38.338697      25.405913      26.837959      26140.966      0.315         -2756.5645    
     31600   296.20796      0.33236629     0.18614957     38.367852      25.383686      26.847493      26147.243      0.316         -3280.2002    
     31700   295.66281      0.188242       0.070492452    38.397007      25.566159      26.649434      26160.789      0.317         -1857.8041    
     31800   301.4762       0.18697323     0.13100738     38.426162      25.422012      26.605009      25989.644      0.318         -1845.2823    
     31900   301.14526      0.065129357    0.047624206    38.455317      25.353844      26.830174      26159.154      0.319         -642.77677    
     32000   303.29556     -0.15181013     0.12282109     38.484472      25.437803      26.404199      25848.666      0.32           1498.2495    
     32100   302.52265      0.26860814     0.05287164     38.513627      25.353439      26.697644      26068.992      0.321         -2650.9563    
     32200   303.37249      0.24873363     0.19130158     38.542782      25.360268      26.551216      25952.626      0.322         -2454.8101    
     32300   304.1039      -0.0078490846   0.056783371    38.571937      25.369165      26.490858      25922.307      0.323          77.464443    
     32400   291.6965       0.026539649    0.070636294    38.601091      25.323705      26.593938      25996.177      0.324         -261.92597    
     32500   305.92859      0.15265477     0.075314318    38.630246      25.473442      26.645474      26220.355      0.325         -1506.5854    
     32600   294.05008      0.20051775     0.22784841     38.659401      25.368358      26.769349      26253.384      0.326         -1978.9563    
     32700   302.15026      0.13306271     0.094495617    38.688556      25.295293      26.487083      25921.276      0.327         -1313.2268    
     32800   298.32317      0.12011399     0.051944526    38.717711      25.084803      26.742044      25972.573      0.328         -1185.4329    
     32900   299.98956      0.10382069     0.18092391     38.746866      24.959005      26.827943      25944.853      0.329         -1024.6305    
     33000   302.22176     -0.16824623     0.08650706     38.776021      25.190915      26.744359      26123.983      0.33           1660.4612    
     33100   301.29799      0.063359859   -0.027625489    38.805176      24.904902      26.906386      26003.384      0.331         -625.31319    
     33200   298.15842      0.25305968     0.17275127     38.834331      24.826015      26.956129      25988.449      0.332         -2497.5048    
     33300   307.36935     -0.0250906      0.11021118     38.863486      24.873614      26.740915      25849.782      0.333          247.62497    
     33400   297.45679      0.15007064     0.13811211     38.89264       24.825574      26.957572      26028.402      0.334         -1481.082     
     33500   300.67606      0.10352718     0.12809864     38.921795      24.883651      26.989645      26139.913      0.335         -1021.7339    
     33600   311.38814      0.11262523     0.13959804     38.95095       24.910101      26.882321      26083.167      0.336         -1111.5246    
     33700   303.73473      0.21302068     0.097048433    38.980105      24.855862      26.638775      25809.886      0.337         -2102.3507    
     33800   305.43156      0.011427144   -0.040176112    39.00926       24.955379      26.893482      26180.56       0.338         -112.77714    
     33900   303.07253      0.20540494     0.10116948     39.038415      24.97091       26.845861      26170.009      0.339         -2027.1892    
     34000   301.96821      0.19840028     0.012116308    39.06757       25.127653      26.570875      26083.999      0.34          -1958.0586    
     34100   300.82418      0.094105216    0.022517484    39.096725      25.004904      26.615557      26019.63       0.341         -928.74628    
     34200   304.07468      0.025681116   -0.05366613     39.12588       24.865092      26.688175      25964.087      0.342         -253.4529     
     34300   299.92794      0.024296523    0.061200876    39.155035      24.477357      26.996444      25873.71       0.343         -239.78804    
     34400   290.06258     -0.17444094     0.0089548895   39.18419       24.421947      27.384591      26205.8        0.344          1721.5982    
     34500   300.68798     -0.32125769    -0.011445803    39.213344      24.361344      27.359904      26136.637      0.345          3170.5669    
     34600   305.74705      0.23993033     0.084894683    39.242499      24.175001      27.617405      26200.286      0.346         -2367.9282    
     34700   298.30853      0.14072256     0.23147246     39.271654      24.252846      27.523206      26214.461      0.347         -1388.8237    
     34800   305.7061      -0.27805733     0.044299368    39.300809      24.453123      27.023095      25969.938      0.348          2744.2124    
     34900   299.2986       0.4180379      0.068139323    39.329964      24.52439       26.78144       25831.861      0.349         -4125.7133    
     35000   295.30179      0.28207886     0.10567602     39.359119      24.532295      26.822985      25899.457      0.35          -2783.9019    
     35100   303.27042      0.49384402     0.043644529    39.388274      24.639722      26.88913       26096.334      0.351         -4873.8616    
     35200   297.96597      0.20063079    -0.0072744281   39.417429      24.619586      26.504329      25720.882      0.352         -1980.072     
     35300   299.86911      0.12614322     0.18841751     39.446584      24.871882      26.372922      25874.758      0.353         -1244.9368    
     35400   298.63213      0.089972017    0.092480357    39.475739      24.767137      26.443692      25854.024      0.354         -887.95477    
     35500   304.67792     -0.18381125     0.091319002    39.504893      24.701389      26.542559      25900.912      0.355          1814.076     
     35600   296.33032      0.2537554      0.12825833     39.534048      24.794871      26.563238      26038.391      0.356         -2504.3711    
     35700   298.16748      0.1393938      0.17820448     39.563203      24.822308      26.524867      26048.746      0.357         -1375.7098    
     35800   300.6942       0.014886182    0.030902824    39.592358      24.847367      26.303536      25876.52       0.358         -146.9152     
     35900   311.50609      0.11686993     0.049079392    39.621513      24.781425      26.257263      25781.417      0.359         -1153.4165    
     36000   308.17002      0.26050414     0.085213576    39.650668      24.428034      26.532266      25698.831      0.36          -2570.976     
     36100   292.82477     -0.13863068     0.023961025    39.679823      24.319046      26.522093      25593.168      0.361          1368.1785    
     36200   309.38247     -0.016581969    0.10357517     39.708978      24.6211        26.321509      25733.979      0.362          163.65131    
     36300   305.69501      0.3088479      0.051596864    39.738133      24.419339      26.314051      25534.601      0.363         -3048.0918    
     36400   296.12506      0.28086472     0.16756796     39.767288      24.403948      26.646319      25859.689      0.364         -2771.9192    
     36500   301.89151      0.2674923      0.0052336504   39.796442      24.685144      26.492888      26026.107      0.365         -2639.9438    
     36600   296.49999     -0.069345609    0.041918647    39.825597      24.548542      26.446393      25855.59       0.366          684.38795    
     36700   299.35098      0.10107159     0.015604835    39.854752      24.734259      26.488866      26112.135      0.367         -997.49907    
     36800   305.49636     -0.18372073     0.0356445      39.883907      24.581172      26.40718       25889.419      0.368          1813.1827    
     36900   297.39134     -0.052297742    0.033622342    39.913062      24.233288      26.663035      25789.147      0.369          516.13859    
     37000   313.17143     -0.070941156    0.18188603     39.942217      24.391894      26.635406      25949.979      0.37           700.13478    
     37100   310.21953     -0.21125627     0.074208334    39.971372      24.206421      26.646506      25782.195      0.371          2084.9373    
     37200   289.64805     -0.14961123     0.056521167    40.000527      24.396117      26.541754      25900.97       0.372          1476.5481    
     37300   294.87104      0.26051625     0.24719708     40.029682      24.328375      26.673783      25976.453      0.373         -2571.0955    
     37400   301.69972      0.062317544    0.1643124      40.058837      24.576806      26.584266      26172.696      0.374         -615.02634    
     37500   298.92446     -0.17073472     0.14144093     40.087991      24.563567      26.447827      26043.283      0.375          1685.0207    
     37600   300.66898      0.15328239     0.060409418    40.117146      24.659827      26.527859      26243.531      0.376         -1512.7796    
     37700   295.32388      0.19524958     0.17803597     40.146301      24.539972      26.319997      25930.174      0.377         -1926.9635    
     37800   295.07168      0.20779485     0.050376738    40.175456      24.510967      26.127197      25728.478      0.378         -2050.7757    
     37900   308.70318      0.1361509      0.18114744     40.204611      24.431683      26.315672      25848.998      0.379         -1343.7049    
     38000   303.42888      0.25053714     0.21775479     40.233766      24.561731      26.262944      25953.328      0.38          -2472.6093    
     38100   295.58083     -0.20748004     0.029028591    40.262921      24.671267      25.901447      25728.872      0.381          2047.6688    
     38200   295.31471      0.099262208    0.038590473    40.292076      24.666776      25.875399      25716.927      0.382         -979.64183    
     38300   304.02581      0.16809331     0.20547763     40.321231      24.746443      25.668631      25612.341      0.383         -1658.952     
     38400   297.30037      0.0031119605  -0.046450722    40.350386      24.469989      25.665736      25341.667      0.384         -30.712663    
     38500   310.53581     -0.18587975     0.012390036    40.379541      24.544243      25.856708      25626.202      0.385          1834.4905    
     38600   299.57501      0.058131706    0.19652473     40.408695      24.59283       25.883522      25722.117      0.386         -573.71533    
     38700   292.7197      -0.26060595     0.10185156     40.43785       24.764927      25.816093      25853.278      0.387          2571.9808    
     38800   303.92599     -0.21450769    -0.086728399    40.467005      24.720689      25.623428      25632.966      0.388          2117.0263    
     38900   299.5856       0.028316932    0.057861306    40.49616       24.61195       25.761086      25675.803      0.389         -279.46639    
     39000   300.25227      0.003647916    0.10604599     40.525315      24.50897       25.987413      25811.575      0.39          -36.002132    
     39100   304.66703      0.49166384     0.10500131     40.55447       24.457609      26.020259      25808.594      0.391         -4852.3448    
     39200   308.70812      0.24285372     0.17262953     40.583625      24.436337      25.965605      25750.484      0.392         -2396.7799    
     39300   300.97343      0.14602975     0.073026445    40.61278       24.08717       26.089898      25522.362      0.393         -1441.2015    
     39400   299.35156      0.4688268      0.039843063    40.641935      23.986028      26.448798      25783.309      0.394         -4626.9607    
     39500   296.38868      0.13408388     0.038317132    40.67109       24.141182      26.309425      25831.86       0.395         -1323.305     
     39600   285.35385      0.12442439     0.072242852    40.700244      24.336274      26.115915      25867.612      0.396         -1227.9732    
     39700   292.46267      0.27132994     0.17891636     40.729399      24.157409      26.225996      25804.197      0.397         -2677.8183    
     39800   308.92205      0.19916547     0.034046297    40.758554      24.374775      26.074807      25904.815      0.398         -1965.6104    
     39900   299.41485      0.081425131    0.14247354     40.787709      24.426443      26.153446      26056.642      0.399         -803.60356    
     40000   304.14983      0.23191254     0.092292731    40.816864      24.017857      26.368007      25849.443      0.4           -2288.7988    
     40100   296.55238      0.25226212     0.096840316    40.846019      23.946938      26.255284      25681.267      0.401         -2489.6336    
     40200   292.40959      0.089118957    0.031759114    40.875174      24.002439      26.098488      25605.327      0.402         -879.53572    
     40300   294.26986     -0.025012041   -0.097457621    40.904329      24.276491      25.766548      25586.531      0.403          246.84965    
     40400   297.48976      0.092197004    0.089810698    40.933484      24.465308      25.852066      25889.559      0.404         -909.91369    
     40500   301.704        0.075835873    0.015567596    40.962639      24.486129      25.857695      25935.694      0.405         -748.44188    
     40600   304.7417       0.25691092     0.12258033     40.991793      24.61788       26.104665      26343.029      0.406         -2535.5137    
     40700   297.7537       0.58847355     0.1838407      41.020948      24.441621      26.014775      26082.894      0.407         -5807.7824    
     40800   297.97505      0.3721582      0.26185758     41.050103      24.315016      25.85337       25805.126      0.408         -3672.9158    
     40900   298.99723     -0.026193692    0.10673754     41.079258      24.566135      25.880973      26118.007      0.409          258.51164    
     41000   305.53154      0.1303477      0.072320402    41.108413      24.635755      25.640781      25967.362      0.41          -1286.4318    
     41100   317.20462      0.1979184      0.14641776     41.137568      24.588311      25.600188      25894.676      0.411         -1953.3027    
     41200   299.35908      0.068853967    0.085847148    41.166723      24.343828      25.929234      25985.127      0.412         -679.53582    
     41300   296.61255     -0.076592801    0.024258247    41.195878      24.266049      26.053996      26045.17       0.413          755.91218    
     41400   304.35946      0.053700808    0.059714734    41.225033      24.494631      25.870254      26123.575      0.414         -529.98577    
     41500   303.67737      0.28410556     0.12866819     41.254188      24.400479      26.009571      26181.805      0.415         -2803.9039    
     41600   294.2056       0.14590294     0.18260908     41.283343      24.401647      26.089002      26281.579      0.416         -1439.95      
     41700   301.24719     -0.20471972    -0.0036376127   41.312497      24.533883      25.700816      26049.215      0.417          2020.4266    
     41800   295.39477      0.14244063     0.1157375      41.341652      24.505097      25.732808      26069.424      0.418         -1405.7798    
     41900   300.55625     -0.06375737     0.1001709      41.370807      24.444597      25.828113      26119.783      0.419          629.23632    
     42000   302.31264      0.18972458     0.039654271    41.399962      24.514533      25.605456      25986.995      0.42          -1872.436     
     42100   292.841        0.11707875     0.055785264    41.429117      24.491804      25.776853      26155.098      0.421         -1155.4774    
     42200   301.62694      0.057585908   -0.064389587    41.458272      24.210713      25.829695      25926.151      0.422         -568.32872    
     42300   300.57489      0.11328506     0.058144842    41.487427      24.484761      25.634113      26039.381      0.423         -1118.0366    
     42400   297.87052      0.34509478     0.13741477     41.516582      24.511595      25.391488      25839.334      0.424         -3405.8207    
     42500   300.67249      0.38091298     0.12405223     41.545737      24.563194      25.421407      25942.444      0.425         -3759.3188    
     42600   295.2274      -0.17635424    -0.10373157     41.574892      24.550656      25.511234      26039.084      0.426          1740.481     
     42700   292.69546      0.1560589      0.04126156     41.604046      24.506326      25.378795      25875.264      0.427         -1540.1816    
     42800   298.34931      0.01366915     0.13269601     41.633201      24.602352      25.300237      25914.393      0.428         -134.90402    
     42900   302.1193      -0.026501786    0.060649058    41.662356      24.447668      25.501126      25974.107      0.429          261.55229    
     43000   300.26188     -0.044302779    0.090907729    41.691511      24.420033      25.328989      25787.649      0.43           437.23444    
     43100   301.16272      0.14915899    -0.018819995    41.720666      24.241117      25.441152      25730.051      0.431         -1472.0848    
     43200   298.75924     -0.1894634      0.096624152    41.749821      24.237302      25.332443      25633.976      0.432          1869.8584    
     43300   310.71169      0.077009423    0.035729618    41.778976      24.488868      25.270317      25854.562      0.433         -760.02392    
     43400   295.9224       0.084491857    0.0049079247   41.808131      24.554926      25.367702      26042.371      0.434         -833.8698     
     43500   299.20289      0.1611797      0.20116708     41.837286      24.870447      25.06578       26081.244      0.435         -1590.7199    
     43600   298.62258     -0.065160842    0.091661111    41.866441      24.651233      25.225222      26033.927      0.436          643.08751    
     43700   295.16945     -0.059388844    0.032339872    41.895595      24.450549      25.254835      25870.303      0.437          586.12232    
     43800   302.36782      0.27609793     0.18193442     41.92475       24.293872      25.301908      25770.36       0.438         -2724.8747    
     43900   304.62252     -0.24351041     0.0046138972   41.953905      24.239006      25.24718       25674.387      0.439          2403.2609    
     44000   295.53832     -0.074840845    0.011331196    41.98306       24.044898      25.472871      25714.312      0.44           738.62171    
     44100   302.2274      -0.077176477    0.01477382     42.012215      24.263398      25.607192      26102.923      0.441          761.67261    
     44200   300.64321     -0.34791685     0.15786954     42.04137       24.251853      25.586376      26087.386      0.442          3433.6724    
     44300   297.53762      0.07192423     0.081140323    42.070525      24.088295      26.02912       26378.097      0.443         -709.83696    
     44400   299.68124      0.082418957    0.060919708    42.09968       24.027122      25.784419      26081.821      0.444         -813.41186    
     44500   300.40855     -0.015054041    0.2307833      42.128835      24.179239      25.537097      26013.189      0.445          148.57183    
     44600   287.58496      0.15553304    -0.051825359    42.15799       24.202011      25.496718      26014.509      0.446         -1534.9917    
     44700   299.44011      0.11076766    -0.066071906    42.187145      24.135962      25.452497      25916.428      0.447         -1093.1918    
     44800   298.42842      0.20442969     0.031250343    42.216299      24.033643      25.355222      25725.698      0.448         -2017.5642    
     44900   303.90748      0.072144129    0.12834459     42.245454      23.818664      25.489713      25648.52       0.449         -712.0072     
     45000   297.39174     -0.014036545    0.068223669    42.274609      24.116932      25.335102      25829.996      0.45           138.52993    
     45100   293.32088      0.21002435     0.066368543    42.303764      24.170915      25.371965      25943.359      0.451         -2072.7792    
     45200   301.16049     -0.11310322    -0.020706683    42.332919      24.290648      25.146027      25857.509      0.452          1116.242     
     45300   305.87821      0.16456321     0.04075765     42.362074      24.277998      25.361672      26083.626      0.453         -1624.1126    
     45400   297.22106      0.19718863    -0.00087476546  42.391229      24.176519      25.463222      26096.552      0.454         -1946.1005    
     45500   297.3937       0.11323719     0.090986362    42.420384      24.297169      25.51167       26294.757      0.455         -1117.5641    
     45600   300.31959     -0.051775326    0.053889266    42.449539      24.186483      25.426866      26105.891      0.456          510.98274    
     45700   300.65223      0.081216681    0.077568933    42.478694      24.262285      25.447415      26226.874      0.457         -801.54632    
     45800   291.73277      0.034410751   -0.036191287    42.507848      24.359447      25.395558      26296.279      0.458         -339.60771    
     45900   297.58213      0.1705654      0.1308501      42.537003      24.243413      25.211107      25998.756      0.459         -1683.3496    
     46000   306.11543     -0.10196733     0.027336183    42.566158      24.171424      25.4676        26203.223      0.46           1006.3393    
     46100   286.63661      0.12506051     0.039638971    42.595313      24.096562      25.54801       26222.492      0.461         -1234.2513    
     46200   290.82825      0.18300742     0.16522565     42.624468      23.809462      25.557623      25937.554      0.462         -1806.1428    
     46300   298.7817       0.37764083     0.045674987    42.653623      23.871013      25.522073      25986.197      0.463         -3727.0252    
     46400   298.20375      0.14731468     0.13921431     42.682778      24.012596      25.492718      26128.106      0.464         -1453.8829    
     46500   296.53452     -0.012281321    0.205063       42.711933      23.948383      25.503499      26087.063      0.465          121.20722    
     46600   300.15257      0.36064718     0.16315751     42.741088      23.982984      25.534761      26174.632      0.466         -3559.3109    
     46700   303.18257     -0.04179281     0.066150699    42.770243      23.79478       25.719644      26175.102      0.467          412.46297    
     46800   308.30325     -0.059984175    0.023046236    42.799397      23.878003      25.438233      25996.962      0.468          591.99778    
     46900   284.71514      0.36985388     0.16970024     42.828552      23.921532      25.491201      26116.363      0.469         -3650.174     
     47000   309.88678      0.057344442    0.16497432     42.857707      24.002537      25.333369      26060.277      0.47          -565.94564    
     47100   303.87988      0.11438211     0.12489424     42.886862      23.977384      25.243363      25958.122      0.471         -1128.8637    
     47200   296.82008      0.20226421    -0.01409073     42.916017      24.037342      25.217635      26014.184      0.472         -1996.1925    
     47300   300.40467      0.061152544    0.14956981     42.945172      24.161876      25.45563       26413.676      0.473         -603.52869    
     47400   298.77021      0.14371455     0.025257326    42.974327      23.953524      25.577977      26329.625      0.474         -1418.3524    
     47500   302.7553       0.14489023     0.14867109     43.003482      23.853917      25.335822      25989.524      0.475         -1429.9554    
     47600   304.82802      0.23184973     0.045560037    43.032637      23.760749      25.363927      25934.303      0.476         -2288.179     
     47700   292.79917      0.26522822     0.080823734    43.061792      23.700843      25.593997      26121.253      0.477         -2617.5991    
     47800   303.3735       0.19830459     0.10124498     43.090946      23.894708      25.218792      25966.418      0.478         -1957.1142    
     47900   299.92139      0.052607471    0.092233825    43.120101      23.622359      25.071644      25537.939      0.479         -519.19537    
     48000   292.74803      0.070541643    0.019569976    43.149256      23.830425      25.224013      25936.973      0.48          -696.19188    
     48100   305.0946      -0.045116552    0.052645694    43.178411      23.595606      25.352986      25830.15       0.481          445.26575    
     48200   294.1182       0.18515592     0.13677832     43.207566      23.874177      25.356949      26156.836      0.482         -1827.3469    
     48300   293.5064       0.15852906     0.17401356     43.236721      23.806096      25.095568      25830.806      0.483         -1564.5602    
     48400   304.77278     -0.19717134     0.029842992    43.265876      24.136474      24.820758      25919.961      0.484          1945.9298    
     48500   296.60104     -0.19800588    -0.039125121    43.295031      24.035691      24.88686       25897.913      0.485          1954.1661    
     48600   299.86979      0.072547493    0.086838264    43.324186      23.862935      24.855606      25696.775      0.486         -715.98809    
     48700   305.54592     -0.066045395    0.15089246     43.353341      23.709898      24.889395      25583.89       0.487          651.81737    
     48800   304.59658      0.20291106     0.068857904    43.382496      24.007106      24.942048      25976.848      0.488         -2002.5764    
     48900   302.26802      0.063040318    0.087419079    43.41165       23.954465      25.063876      26063.996      0.489         -622.15956    
     49000   303.58895      0.20484253    -0.021935183    43.440805      23.642976      25.276794      25961.035      0.49          -2021.6386    
     49100   301.06629      0.2546252      0.074507982    43.46996       23.659147      25.396912      26119.764      0.491         -2512.9553    
     49200   300.75716     -0.038232776   -0.035356418    43.499115      23.707306      25.049743      25832.468      0.492          377.32816    
     49300   302.53716      0.34817395     0.068829221    43.52827       23.931225      24.78991       25823.273      0.493         -3436.2097    
     49400   303.44211      0.010785182    0.15897999     43.557425      23.91427       24.827479      25861.396      0.494         -106.44147    
     49500   306.41196     -0.068718899    0.07957197     43.58658       23.786173      24.857633      25771.348      0.495          678.2028     
     49600   296.98781      0.29208348    -0.026572794    43.615735      23.89004       24.886381      25931.152      0.496         -2882.6398    
     49700   297.64839     -0.0093941335   0.11202418     43.64489       23.889092      24.700428      25753.575      0.497          92.712889    
     49800   302.41074      0.27044593    -0.011434519    43.674045      23.889777      24.636965      25705.303      0.498         -2669.0938    
     49900   302.73395      0.33904918     0.089016949    43.703199      24.089689      24.814793      26124.926      0.499         -3346.1552    
     50000   297.9333      -0.26208814     0.11064178     43.732354      23.913894      24.774094      25909.017      0.5            2586.6088    
     50100   305.56709      0.011995854    0.12425688     43.761509      23.793848      24.835651      25860.238      0.501         -118.38987    
     50200   302.10598      0.24667183     0.18730384     43.790664      23.662918      24.847329      25747.173      0.502         -2434.4617    
     50300   293.5434      -0.025415501    0.022918558    43.819819      23.439729      24.845647      25519.577      0.503          250.83149    
     50400   291.18539      0.040582266    0.11187442     43.848974      23.34695       25.054402      25649.189      0.504         -400.51582    
     50500   302.42294      0.35443006     0.084367695    43.878129      23.374492      25.273924      25921.669      0.505         -3497.9527    
     50600   304.6999      -0.082040855    0.11981382     43.907284      23.361583      25.181129      25829.383      0.506          809.68028    
     50700   297.55755      0.33437053     0.12061557     43.936439      23.420125      25.121995      25850.454      0.507         -3299.9805    
     50800   301.44634      0.24346999     0.042225351    43.965594      23.398262      25.139198      25861.157      0.508         -2402.862     
     50900   310.40011      0.070155777    0.12278931     43.994748      23.209413      25.11747       25647.255      0.509         -692.38369    
     51000   302.00212      0.027197684    0.055071784    44.023903      23.521515      25.039133      25928.245      0.51          -268.42028    
     51100   300.20183      0.2622834      0.085546381    44.053058      23.433054      25.123076      25934.494      0.511         -2588.5359    
     51200   296.27697      0.12987738     0.11389267     44.082213      23.245036      24.850523      25464.148      0.512         -1281.7901    
     51300   302.15866      0.42495479     0.25811829     44.111368      23.337886      24.837067      25568.918      0.513         -4193.9777    
     51400   299.17186      0.30809838     0.11369103     44.140523      23.562416      24.743092      25734.235      0.514         -3040.6946    
     51500   299.66656      0.06577781     0.14742473     44.169678      23.571784      24.972194      26000.002      0.515         -649.17651    
     51600   308.43637     -0.0077298231   0.016005915    44.198833      23.472732      24.979132      25915.035      0.516          76.287422    
     51700   301.13611      0.53860686     0.10724436     44.227988      23.769705      24.857474      26132.32       0.517         -5315.6365    
     51800   300.15429      0.02103261     0.15591156     44.257143      23.680147      24.883336      26078.125      0.518         -207.57573    
     51900   300.0718       0.28591084     0.091690253    44.286298      23.804604      24.934566      26286.464      0.519         -2821.7206    
     52000   305.40381      0.22696431     0.097546751    44.315452      23.855712      24.836138      26256.186      0.52          -2239.9636    
     52100   298.08421      0.094843909    0.112891       44.344607      23.56414       24.996157      26119.548      0.521         -936.03661    
     52200   303.20009      0.25101213     0.13978746     44.373762      23.368428      25.093923      26021.02       0.522         -2477.2971    
     52300   297.30871      0.2457093      0.1835043      44.402917      23.326711      24.885744      25776.007      0.523         -2424.9623    
     52400   304.21964      0.0058385937   0.19004659     44.432072      23.407623      24.928524      25926.891      0.524         -57.62244     
     52500   299.4973       0.089964038    0.19834397     44.461227      23.291251      25.019428      25909.059      0.525         -887.87603    
     52600   289.79556      0.22351144     0.21742037     44.490382      23.291333      24.950437      25854.648      0.526         -2205.8864    
[...]
     87400   307.80621     -0.0017929151   0.19117959     54.636288      20.446911      22.948206      25636.435      0.874          17.694696    
     87500   298.19961      0.18932124    -0.014514348    54.665443      20.212193      22.9649        25374.113      0.875         -1868.4554    
     87600   304.38283      0.19195519     0.14399582     54.694598      20.227313      23.129296      25588.514      0.876         -1894.4504    
     87700   303.5772       0.1960453      0.096045898    54.723753      20.093742      23.107486      25409.106      0.877         -1934.8167    
     87800   293.18802      0.44832451     0.21130999     54.752908      20.20707       23.039695      25491.023      0.878         -4424.6189    
     87900   308.62306      0.37882825     0.20953287     54.782063      20.154345      23.08913       25492.629      0.879         -3738.7442    
     88000   295.22608     -0.16347862     0.14615802     54.811217      20.007045      23.078621      25308.258      0.88           1613.4085    
     88100   303.85789      0.1297061      0.090544224    54.840372      20.040698      23.117854      25407.432      0.881         -1280.0997    
     88200   298.28167      0.095427742    0.062843351    54.869527      20.074754      23.320936      25687.831      0.882         -941.79859    
     88300   304.36288      0.1407967      0.17238144     54.898682      20.044664      23.195162      25524.552      0.883         -1389.5554    
     88400   299.57197      0.40325657     0.078716632    54.927837      19.886785      23.317632      25470.738      0.884         -3979.833     
     88500   292.99983      0.438062       0.064066437    54.956992      20.074506      23.152808      25542.976      0.885         -4323.3358    
     88600   304.7018       0.38576925     0.23605429     54.986147      19.907107      23.336108      25544.057      0.886         -3807.2465    
     88700   299.34606      0.081081699    0.18098484     55.015302      19.780966      23.240025      25291.093      0.887         -800.21415    
     88800   298.76015     -0.1421493      0.12020672     55.044457      19.884785      23.182094      25373.895      0.888          1402.9045    
     88900   299.80013     -0.079244531    0.093430865    55.073612      20.111619      23.393315      25910.892      0.889          782.08271    
     89000   292.45661     -0.063785053    0.34162759     55.102766      20.153248      23.165933      25725.762      0.89           629.50953    
     89100   300.91285      0.09992884    -0.032928341    55.131921      19.834579      23.344222      25527.338      0.891         -986.22098    
     89200   303.9703       0.12525925     0.17881332     55.161076      19.952393      23.480734      25842.789      0.892         -1236.2126    
     89300   301.66146      0.30154029     0.14420786     55.190231      20.032428      23.179278      25626.879      0.893         -2975.9713    
     89400   294.13958      0.19449266     0.18345645     55.219386      19.834748      23.052028      25248.024      0.894         -1919.4933    
     89500   302.39374      0.36064577     0.28468019     55.248541      19.919268      23.248584      25585.311      0.895         -3559.297     
     89600   304.95203      0.24653524     0.11706142     55.277696      19.844262      23.401981      25670.688      0.896         -2433.1136    
     89700   298.05561     -0.10860073     0.23692368     55.306851      19.753516      23.417289      25583.5        0.897          1071.8058    
     89800   302.51193     -0.12199025     0.098031755    55.336006      19.838401      23.55379       25856.83       0.898          1203.9502    
     89900   299.23799     -0.089612489    0.1831759      55.365161      19.837405      23.603413      25923.654      0.899          884.4065     
     90000   293.90632      0.30463792     0.041782897    55.394316      19.782131      23.624092      25887.696      0.9           -3006.5425    
     90100   304.19116      0.19304091     0.1042996      55.42347       19.959631      23.43722       25927.003      0.901         -1905.1656    
     90200   297.13677     -0.050928417    0.12343135     55.452625      20.232899      23.391407      26244.396      0.902          502.6244     
     90300   302.78687      0.44294371     0.17803713     55.48178       19.939745      23.417155      25906.224      0.903         -4371.5146    
     90400   303.33171      0.25119649     0.16958277     55.510935      19.943049      23.438635      25947.911      0.904         -2479.1166    
     90500   295.52951      0.20275495     0.091341216    55.54009       19.934971      23.229892      25719.906      0.905         -2001.0358    
     90600   308.68224      0.15981533     0.16514611     55.569245      19.958701      23.373152      25922.928      0.906         -1577.2546    
     90700   297.24652     -0.030030987    0.031368536    55.5984        19.91464       23.33182       25833.506      0.907          296.3828     
     90800   293.40948      0.26265652     0.15117767     55.627555      19.9237        23.256101      25774.893      0.908         -2592.2183    
     90900   303.51287      0.11714058     0.11981317     55.65671       19.944602      23.159585      25708.32       0.909         -1156.0876    
     91000   295.39871      0.3425141     -0.005079125    55.685865      19.922939      23.092164      25619.048      0.91          -3380.3514    
     91100   297.40969     -0.11985851     0.1890091      55.715019      19.809363      23.21991       25627.328      0.911          1182.9116    
     91200   302.9768       0.2053012      0.14981841     55.744174      19.849432      23.325428      25809.357      0.912         -2026.1653    
     91300   298.57321      0.028443103    0.24734836     55.773329      19.77972       23.192086      25585.065      0.913         -280.7116     
     91400   300.28776      0.02101609     0.10353433     55.802484      19.66378       23.255996      25518.52       0.914         -207.41268    
     91500   304.70684      0.053169725    0.32315002     55.831639      19.724855      23.317557      25678.95       0.915         -524.74439    
     91600   297.88835      0.11060136     0.16252696     55.860794      19.665027      23.242928      25532.45       0.916         -1091.5506    
     91700   300.3213      -0.21656042     0.11936768     55.889949      19.71987       23.166805      25533.122      0.917          2137.2852    
     91800   298.49328     -0.13524632    -0.050502856    55.919104      19.59416       23.403728      25643.181      0.918          1334.7774    
     91900   288.25268      0.15584939     0.036726255    55.948259      19.692347      23.388397      25768.226      0.919         -1538.1139    
     92000   299.69737     -0.049429134    0.16716592     55.977414      19.681829      23.380277      25758.937      0.92           487.82763    
     92100   296.8099      -0.032684032    0.20033661     56.006568      19.658275      23.374193      25734.812      0.921          322.56631    
     92200   300.66806      0.16565625     0.059397651    56.035723      19.897524      23.400234      26090.609      0.922         -1634.9001    
     92300   300.9955      -0.10434515     0.25153687     56.064878      19.779915      23.447496      26002.3        0.923          1029.8065    
     92400   295.08449      0.36858963     0.19237412     56.094033      19.640884      23.564289      25961.634      0.924         -3637.6968    
     92500   302.54686      0.22730987     0.1513434      56.123188      19.638838      23.546041      25952.31       0.925         -2243.374     
     92600   299.28413      0.00665563     0.13677666     56.152343      19.637173      23.572647      25992.928      0.926         -65.685961    
     92700   294.09951      0.22813969     0.15663919     56.181498      19.754249      23.381108      25948.898      0.927         -2251.5637    
     92800   302.8779       0.25494827     0.20072361     56.210653      19.780728      23.358831      25972.396      0.928         -2516.1438    
     92900   295.03084     -0.012209795    0.17431352     56.239808      19.710584      23.297013      25825.192      0.929          120.50131    
     93000   293.36753      0.076833427    0.14187675     56.268963      19.702353      23.519677      26074.641      0.93          -758.28697    
     93100   302.61355      0.012573684    0.050643511    56.298118      19.54424       23.38024       25725.369      0.931         -124.09261    
     93200   298.38856     -0.18586353     0.022166617    56.327272      19.366996      23.440503      25571.011      0.932          1834.3304    
     93300   298.9861       0.27426065     0.018086666    56.356427      19.350422      23.844535      26002.958      0.933         -2706.7421    
     93400   308.3584       0.47065552     0.32182452     56.385582      19.394338      23.70291       25920.578      0.934         -4645.0089    
     93500   294.18202      0.30245193     0.18262783     56.414737      19.357625      23.757161      25944.134      0.935         -2984.9685    
     93600   302.44579     -0.079053071    0.14358327     56.443892      19.249943      23.706137      25757.706      0.936          780.19315    
     93700   301.50841      0.30414823     0.033440938    56.473047      19.27528       23.670086      25765.688      0.937         -3001.7097    
     93800   295.92617     -0.0515372      0.29427324     56.502202      19.49852       23.59682       25996.837      0.938          508.63262    
     93900   303.17537     -0.057734525    0.055079601    56.531357      19.32759       23.644663      25834.51       0.939          569.79546    
     94000   288.44339      0.080516699    0.12287559     56.560512      19.364703      23.653565      25907.218      0.94          -794.63804    
     94100   300.52798      0.30067159    -0.028840066    56.589667      19.288417      23.717728      25888.495      0.941         -2967.3978    
     94200   300.29419     -0.11053587     0.062105609    56.618821      19.366289      23.560747      25834.275      0.942          1090.9042    
     94300   291.20718     -0.069601661    0.059027009    56.647976      19.385007      23.521594      25829.566      0.943          686.91499    
     94400   297.03762     -0.14109864     0.054324369    56.677131      19.275094      23.683073      25872.74       0.944          1392.5353    
     94500   302.17648     -0.01347914     0.14751271     56.706286      19.222957      23.74637       25885.027      0.945          133.02877    
     94600   293.29506     -0.22398606     0.0037903344   56.735441      19.411205      23.629552      26023.303      0.946          2210.5706    
     94700   305.83145      0.24609071    -0.010570512    56.764596      19.256748      23.644949      25846.329      0.947         -2428.7265    
     94800   300.34765      0.1414679      0.19786195     56.793751      19.307548      23.702498      25990.929      0.948         -1396.1796    
     94900   298.71464      0.34384321     0.18467346     56.822906      19.28726       23.785649      26068.076      0.949         -3393.4686    
     95000   300.07359      0.32513379     0.042877382    56.852061      19.248993      23.951609      26211.322      0.95          -3208.821     
     95100   297.81487      0.011943809    0.25490796     56.881216      19.192449      23.865748      26053.995      0.951         -117.87623    
     95200   301.55397     -0.06859284     0.16583759     56.91037       19.015778      24.065128      26043.161      0.952          676.9587     
     95300   294.56578     -0.013406218    0.099002065    56.939525      18.998553      23.876842      25829.218      0.953          132.30909    
     95400   303.6547       0.068434496    0.09979979     56.96868       19.071756      24.090126      26173.747      0.954         -675.39596    
     95500   304.44603      0.031761333    0.20292936     56.997835      18.956225      24.011861      25943.947      0.955         -313.45999    
     95600   294.54983      0.18215457    -0.011882699    57.02699       19.068009      23.732593      25806.611      0.956         -1797.7258    
     95700   305.55388      0.092931904    0.042967171    57.056145      19.385922      23.581362      26083.014      0.957         -917.16659    
     95800   305.35367     -0.17822408     0.13963649     57.0853        19.461507      23.572259      26187.977      0.958          1758.9349    
     95900   296.8683       0.042092002   -0.064607912    57.114455      19.364849      23.523772      26017.593      0.959         -415.41577    
     96000   302.74065     -0.052871028    0.11321888     57.14361       19.275258      23.50228       25886.77       0.96           521.79647    
     96100   301.47017      0.0091012037   0.081618794    57.172765      19.282414      23.700871      26128.525      0.961         -89.821897    
     96200   298.35055     -0.12079734     0.2290305      57.20192       19.476843      23.529604      26214.633      0.962          1192.1771    
     96300   303.56651      0.0020128594   0.004469966    57.231074      19.401448      23.687933      26302.269      0.963         -19.865378    
     96400   304.77118      0.12891918     0.054619212    57.260229      19.474625      23.681677      26407.946      0.964         -1272.3334    
     96500   295.57467     -0.13940654     0.068772782    57.289384      19.276588      23.646769      26114.164      0.965          1375.8356    
     96600   307.39134      0.030308376   -0.10302231     57.318539      19.328219      23.632285      26181.388      0.966         -299.12042    
     96700   302.84357      0.368172       0.18631598     57.347694      19.257546      23.694889      26168.062      0.967         -3633.5751    
     96800   294.45485      0.29127676     0.15260727     57.376849      19.198606      23.848981      26270.977      0.968         -2874.6781    
     96900   304.78061     -0.12611179    -0.037812126    57.406004      19.206688      23.470392      25877.966      0.969          1244.6266    
     97000   303.68809      0.075317573    0.075113484    57.435159      19.326703      23.681523      26287.254      0.97          -743.32665    
     97100   299.01584     -0.16038971     0.10073001     57.464314      19.332042      23.737153      26369.663      0.971          1582.9233    
     97200   301.90846     -0.4197481      0.036310647    57.493469      19.067506      23.821591      26114.588      0.972          4142.5916    
     97300   293.6897      -0.088952961    0.02708348     57.522623      19.190329      23.630447      26085.132      0.973          877.89747    
     97400   296.38339      0.15424033     0.11973843     57.551778      19.361416      23.474488      26157.244      0.974         -1522.2337    
     97500   302.63906     -0.0241154      0.16948478     57.580933      19.343067      23.31387       25966.798      0.975          238.0005     
     97600   293.7215       0.023218231   -0.055005518    57.610088      19.257396      23.44771       26013.364      0.976         -229.14612    
     97700   304.42137      0.072612104    0.089259384    57.639243      19.260769      23.473061      26059.233      0.977         -716.62575    
     97800   303.40146      0.21879914     0.17718397     57.668398      19.253782      23.55666       26155.778      0.978         -2159.3796    
     97900   296.46876      0.21156725     0.17444745     57.697553      19.330726      23.638884      26365.287      0.979         -2088.0064    
     98000   300.91283      0.29652964     0.028781627    57.726708      19.263838      23.492333      26124.365      0.98          -2926.52      
     98100   306.86754     -0.026540502   -0.023585714    57.755863      19.344639      23.681489      26458.529      0.981          261.93439    
     98200   293.69807     -0.1111659      0.15216522     57.785018      19.47261       23.608671      26565.069      0.982          1097.1221    
     98300   299.73058      0.080298837    0.16631462     57.814172      19.449551      23.303699      26204.07       0.983         -792.48791    
     98400   306.70955      0.053655024    0.089425533    57.843327      19.240879      23.510014      26165.622      0.984         -529.53391    
     98500   302.80239      0.073525616    0.1435649      57.872482      19.228754      23.276087      25901.996      0.985         -725.64141    
     98600   303.66669     -0.14281328     0.21505711     57.901637      19.255174      23.411695      26101.842      0.986          1409.4575    
     98700   296.84147      0.01899807     0.069765927    57.930792      19.370642      23.540062      26415.636      0.987         -187.49637    
     98800   294.49286      0.30879372     0.11274216     57.959947      19.091683      23.41202       25906.64       0.988         -3047.5571    
     98900   300.11944      0.43802187     0.38623157     57.989102      19.072563      23.459663      25946.406      0.989         -4322.9397    
     99000   299.98542      0.085477837    0.17742564     58.018257      19.05088       23.427658      25894.563      0.99          -843.60066    
     99100   293.81972      0.18950047     0.034924928    58.047412      19.053944      23.416864      25899.804      0.991         -1870.2243    
     99200   305.37037     -0.060226055   -0.0078524055   58.076567      19.020175      23.595567      26064.288      0.992          594.38495    
     99300   298.94066      0.050063812    0.16748611     58.105721      19.102674      23.76114       26374.264      0.993         -494.0914     
     99400   295.18711     -0.22314675     0.12220548     58.134876      18.979407      23.817768      26279.702      0.994          2202.2872    
     99500   305.72583     -0.0094520711   0.063718612    58.164031      19.019347      23.742251      26264.673      0.995          93.284689    
     99600   296.56245      0.10770367     0.091849156    58.193186      18.957507      23.778324      26232.193      0.996         -1062.9526    
     99700   299.26034      0.11267913     0.22184634     58.222341      18.990756      23.780937      26294.256      0.997         -1112.0565    
     99800   303.41607     -0.27477062     0.077469803    58.251496      18.957402      23.498507      25949.332      0.998          2711.7751    
     99900   299.63088      0.23261119     0.072865533    58.280651      19.192147      23.455262      26235.434      0.999         -2295.6939    
    100000   299.97795      0.18821617     0.16868619     58.309806      19.004413      23.443123      25978.348      1             -1857.5492    
Loop time of 761.943 on 4 procs for 100000 steps with 2808 atoms

Performance: 11.339 ns/day, 2.117 hours/ns, 131.243 timesteps/s
240.0% CPU use with 1 MPI tasks x 4 OpenMP threads

MPI task timing breakdown:
Section |  min time  |  avg time  |  max time  |%varavg| %total
---------------------------------------------------------------
Pair    | 529.54     | 529.54     | 529.54     |   0.0 | 69.50
Bond    | 47.993     | 47.993     | 47.993     |   0.0 |  6.30
Neigh   | 88.137     | 88.137     | 88.137     |   0.0 | 11.57
Comm    | 13.612     | 13.612     | 13.612     |   0.0 |  1.79
Output  | 0.59327    | 0.59327    | 0.59327    |   0.0 |  0.08
Modify  | 80.679     | 80.679     | 80.679     |   0.0 | 10.59
Other   |            | 1.387      |            |       |  0.18

Nlocal:           2808 ave        2808 max        2808 min
Histogram: 1 0 0 0 0 0 0 0 0 0
Nghost:          15010 ave       15010 max       15010 min
Histogram: 1 0 0 0 0 0 0 0 0 0
Neighs:    1.08653e+06 ave 1.08653e+06 max 1.08653e+06 min
Histogram: 1 0 0 0 0 0 0 0 0 0

Total # of neighbors = 1086532
Ave neighs/atom = 386.9416
Ave special neighs/atom = 11.65812
Neighbor list builds = 5052
Dangerous builds = 0
unfix 1
unfix 2
unfix def1

print "All done"
All done
Total wall time: 0:12:42
