units			real
dimension		3
processors		* * *
boundary		p p p
atom_style		full
pair_style		lj/cut 10.0
bond_style		harmonic
angle_style 	harmonic
read_data		PVA4_equilibrated.data
Reading data file ...
  orthogonal box = (30.614546 29.037549 30.45605) to (59.769448 58.192451 59.610952)
  1 by 1 by 1 MPI processor grid
  reading atoms ...
  2808 atoms
  reading velocities ...
  2808 velocities
  scanning bonds ...
  3 = max bonds/atom
  scanning angles ...
  6 = max angles/atom
  reading bonds ...
  2804 bonds
  reading angles ...
  5200 angles
Finding 1-2 1-3 1-4 neighbors ...
  special bond factors lj:    0        0        0       
  special bond factors coul:  0        0        0       
     4 = max # of 1-2 neighbors
     7 = max # of 1-3 neighbors
    14 = max # of 1-4 neighbors
    18 = max # of special neighbors
  special bonds CPU = 0.003 seconds
  read_data CPU = 0.062 seconds
variable simname index ssc_not_linked
variable tmp equal "lx"
variable L0 equal ${tmp}
variable L0 equal 29.1549029064426
variable strain equal "(lx - v_L0)/v_L0"
variable p1 equal "v_strain"
variable p2 equal "-pxx/10000*1.01325"
variable p3 equal "-pyy/10000*1.01325"
variable p4 equal "-pzz/10000*1.01325"
variable p5 equal "lx"
variable p6 equal "ly"
variable p7 equal "lz"
variable p8 equal "temp"
fix		1 all npt temp 300 300 50 y 1 1 100 z 1 1 100
fix		2 all deform 1 x erate 1e-5 units box remap x
fix        3 all ave/time 1 100 100 v_p2 v_p3
variable avg_stress equal f_3[1]
fix def1 all print 100 "${p1} ${p2} ${avg_stress}" file ${simname}.txt screen no
fix def1 all print 100 "${p1} ${p2} ${avg_stress}" file ssc_not_linked.txt screen no
thermo_style	custom step temp v_p2 v_avg_stress lx ly lz vol v_strain pxx
thermo          100
timestep	1
run		100000
Generated 36 of 36 mixed pair_coeff terms from geometric mixing rule
Last active /omp style is angle_style harmonic/omp
Neighbor list info ...
  update every 1 steps, delay 10 steps, check yes
  max neighbors/atom: 2000, page size: 100000
  master list distance cutoff = 12
  ghost atom cutoff = 12
  binsize = 6, bins = 5 5 5
  1 neighbor lists, perpetual/occasional/extra = 1 0 0
  (1) pair lj/cut/omp, perpetual
      attributes: half, newton on, omp
      pair build: half/bin/newton/omp
      stencil: half/bin/3d
      bin: standard
Per MPI rank memory allocation (min/avg/max) = 25.31 | 25.31 | 25.31 Mbytes
   Step          Temp           v_p2       v_avg_stress        Lx             Ly             Lz           Volume        v_strain         Pxx      
         0   306.92569     -0.032929718    0              29.154903      29.154903      29.154903      24781.911     -1.2185647e-16  324.99104    
       100   296.25895     -0.018508232   -0.009585647    29.184058      29.29279       29.289654      25039.212      0.001          182.66205    
       200   303.48298      0.1119863      0.052848252    29.213213      29.302036      29.410357      25175.46       0.002         -1105.2188    
       300   303.28552     -0.26861216     0.044490794    29.242368      29.135444      29.21996       24895.095      0.003          2650.996     
       400   295.93021      0.48727967    -0.025338102    29.271523      29.500729      28.804513      24873.597      0.004         -4809.0764    
       500   305.88953      0.17925055     0.13403606     29.300677      29.599422      28.910367      25073.473      0.005         -1769.0654    
       600   294.88348      0.086871381   -0.033220794    29.329832      29.490335      29.102564      25172.163      0.006         -857.35387    
       700   304.44171      0.075650428    0.088131428    29.358987      29.676471      29.064583      25323.132      0.007         -746.61168    
       800   304.72871     -0.29251522    -0.0018995277   29.388142      29.811301      28.571336      25031.312      0.008          2886.9008    
       900   298.13377     -0.27098706     0.012557623    29.417297      29.650532      28.528496      24883.653      0.009          2674.4343    
      1000   298.44698     -0.050422806    0.0072861784   29.446452      29.449652      28.922306      25081.07       0.01           497.63441    
      1100   298.1225      -0.36281062     0.021142142    29.475607      29.449853      28.97953       25155.747      0.011          3580.6625    
      1200   302.09016      0.11405376    -0.070999508    29.504762      29.569037      28.946033      25253.313      0.012         -1125.6231    
      1300   292.7558      -0.079386193    0.065939797    29.533917      29.754344      29.036248      25515.961      0.013          783.48081    
      1400   292.86541      0.032522539    0.068473058    29.563072      29.480512      28.867559      25159.073      0.014         -320.9725     
      1500   302.35151     -0.17148582     0.047407156    29.592226      29.26126       28.948798      25066.933      0.015          1692.4334    
      1600   304.23587     -0.079940654    0.13908607     29.621381      29.268794      28.94721       25096.713      0.016          788.95291    
      1700   298.20857     -0.054841358   -0.0018169679   29.650536      29.176359      29.070588      25148.811      0.017          541.24213    
      1800   289.91205      0.3154788      0.098387506    29.679691      29.193769      29.075854      25193.124      0.018         -3113.5337    
      1900   306.68241     -0.082693866    0.080676131    29.708846      29.135166      29.132564      25216.336      0.019          816.125      
      2000   300.00333     -0.16011517    -0.058272187    29.738001      28.945842      29.184445      25121.722      0.02           1580.2139    
      2100   297.19167      0.19993417     0.11759216     29.767156      29.013465      29.275177      25283.457      0.021         -1973.1968    
      2200   306.36769      0.33131711     0.069343583    29.796311      29.012566      29.355338      25376.734      0.022         -3269.8457    
      2300   303.52634      0.41770405     0.11067117     29.825466      28.958818      29.086426      25122.244      0.023         -4122.4185    
      2400   300.73442     -0.26377009     0.12918432     29.854621      29.031467      29.002237      25136.918      0.024          2603.2083    
      2500   297.09915     -0.24716155    -0.02796844     29.883775      28.89416       29.021497      25059.093      0.025          2439.2948    
      2600   302.24671      0.0078988577   0.033590149    29.91293       28.757939      29.176809      25098.89       0.026         -77.955665    
      2700   301.08856      0.1437165      0.053196406    29.942085      28.871168      29.382624      25400.19       0.027         -1418.3716    
      2800   290.95494      0.15843775    -0.045296853    29.97124       28.923457      29.07077       25200.634      0.028         -1563.659     
      2900   297.70072     -0.02280485     0.014464723    30.000395      28.903257      28.946824      25100.055      0.029          225.06637    
      3000   298.36529     -0.17403711    -0.05802312     30.02955       28.868368      28.990633      25132.099      0.03           1717.6127    
      3100   302.77308     -0.037953012    0.11086621     30.058705      28.810436      29.065766      25171.08       0.031          374.5671     
      3200   304.84348      0.098558685    0.0092553808   30.08786       29.051112      28.928854      25286.3        0.032         -972.69859    
      3300   299.34113      0.19963879     0.0095236962   30.117015      29.136562      28.767537      25243.694      0.033         -1970.2817    
      3400   305.01079      0.17862432     0.12775543     30.14617       29.476453      28.390202      25227.595      0.034         -1762.8849    
      3500   300.95679     -0.11708633     0.10116107     30.175325      29.206836      28.5775        25186.087      0.035          1155.5523    
      3600   289.395       -0.081254377    0.026018937    30.204479      28.856269      28.597107      24924.912      0.036          801.91835    
      3700   305.56163      0.08495223     0.033380761    30.233634      28.896285      28.825101      25182.753      0.037         -838.41332    
      3800   304.25672     -0.24847121     0.05445574     30.262789      28.902747      28.690697      25095.115      0.038          2452.2202    
      3900   297.41299      0.20935351     0.027116242    30.291944      29.153997      28.76259       25401.143      0.039         -2066.1585    
      4000   295.64629      0.033046354    0.071331441    30.321099      28.858111      28.663119      25080.505      0.04          -326.14216    
      4100   300.30671     -0.20037903     0.028410579    30.350254      28.683252      28.744169      25023.063      0.041          1977.5872    
      4200   302.03626      0.2486211      0.056800352    30.379409      28.712939      28.845645      25161.54       0.042         -2453.6995    
      4300   296.81195      0.019684977    0.17166737     30.408564      28.602271      28.993313      25217.049      0.043         -194.27562    
      4400   304.42229     -0.061107248    0.021335354    30.437719      28.701376      28.98631       25322.568      0.044          603.08165    
      4500   299.74184      0.2164723      0.11058215     30.466874      28.379246      29.187216      25236.052      0.045         -2136.4155    
      4600   289.70484     -0.0043928145   0.012055813    30.496028      28.382689      29.443209      25484.843      0.046          43.353708    
      4700   302.26994     -0.024451009    0.050486464    30.525183      28.697132      29.090562      25482.902      0.047          241.31269    
      4800   304.30277      0.062005333    0.13860922     30.554338      28.808478      29.060823      25580.034      0.048         -611.94506    
      4900   297.27347     -0.062764435    0.030899027    30.583493      28.687085      28.639679      25127.059      0.049          619.43681    
      5000   299.0225      -0.016398174    0.093084171    30.612648      28.413107      28.7556        25011.633      0.05           161.8374     
      5100   303.74843     -0.19223002     0.15378214     30.641803      28.725715      28.961312      25491.97       0.051          1897.1628    
      5200   304.97491     -0.27882167    -0.045491366    30.670958      28.824575      28.500776      25196.89       0.052          2751.7559    
      5300   294.01515      0.027422769    0.045617652    30.700113      28.773683      28.448602      25130.224      0.053         -270.64168    
      5400   301.57737      0.12965376     0.028258161    30.729268      28.757832      28.471342      25160.328      0.054         -1279.5831    
      5500   297.65953     -0.13293171    -0.056944713    30.758423      28.83737       28.184852      24999.739      0.055          1311.934     
      5600   288.52749      0.032130457    0.0085134967   30.787577      28.95861       28.129331      25079.14       0.056         -317.10296    
      5700   300.18794      0.022414991    0.11308708     30.816732      28.793905      28.2825        25096.026      0.057         -221.21876    
      5800   299.73329     -0.0051402195   0.047062645    30.845887      28.850992      28.512602      25374.347      0.058          50.730022    
      5900   294.57898      0.30765045    -0.0025402108   30.875042      28.847409      28.653072      25520.287      0.059         -3036.2738    
      6000   302.22511      0.21882431     0.22725722     30.904197      28.700515      28.659636      25420.134      0.06          -2159.628     
      6100   301.01146     -0.19151239     0.040777567    30.933352      28.322746      28.659176      25108.805      0.061          1890.0803    
      6200   293.19        -0.0024664792   0.1194986      30.962507      28.428183      28.555127      25134.446      0.062          24.342257    
      6300   297.20634     -0.26551969    -0.018078805    30.991662      28.578422      28.318612      25081.59       0.063          2620.4756    
      6400   306.38782     -0.31653607     0.022263445    31.020817      28.60675       28.289811      25104.512      0.064          3123.9682    
      6500   305.98192      0.19341085     0.05620839     31.049972      28.355757      28.530573      25119.614      0.065         -1908.8167    
      6600   304.27334      0.2263365      0.031135088    31.079126      28.404321      28.708992      25343.767      0.066         -2233.7676    
      6700   288.36351      0.5272046      0.13237386     31.108281      28.318575      28.872418      25434.931      0.067         -5203.1048    
      6800   299.66722     -0.14100468     0.10333761     31.137436      28.211452      28.798272      25297.332      0.068          1391.608     
      6900   305.96984      0.32541078     0.026757594    31.166591      28.151342      28.857889      25319.374      0.069         -3211.5547    
      7000   300.85192      0.14515443     0.113823       31.195746      28.042162      28.958433      25332.726      0.07          -1432.5628    
      7100   302.7779       0.12709821     0.021615318    31.224901      28.260791      28.724414      25347.584      0.071         -1254.3618    
      7200   294.99974      0.19945217     0.10939498     31.254056      28.135601      28.959852      25465.893      0.072         -1968.4399    
      7300   291.61271     -0.050535593   -0.012876999    31.283211      28.2239        28.887882      25506.099      0.073          498.74752    
      7400   296.4273       0.00056341966  0.011636139    31.312366      28.3007        28.738661      25467.106      0.074         -5.5605198    
      7500   298.5305       0.07148427     0.13889813     31.341521      28.220391      28.83011       25499.367      0.075         -705.4949     
      7600   299.84372     -0.18436785     0.16756791     31.370676      28.090668      28.816055      25393.377      0.076          1819.5692    
      7700   304.04924     -0.15544428     0.087195874    31.39983       27.772757      28.884902      25189.364      0.077          1534.1157    
      7800   299.23387     -0.31977953    -0.020136968    31.428985      27.608999      29.036502      25195.636      0.078          3155.9786    
      7900   300.19117      0.50656446    -0.03122848     31.45814       27.854576      29.007998      25418.35       0.079         -4999.4025    
      8000   302.77034      0.14405329     0.11702666     31.487295      27.827042      28.696352      25143.694      0.08          -1421.6955    
      8100   299.63704      0.24556149     0.085224842    31.51645       27.900902      28.779882      25307.227      0.081         -2423.5034    
      8200   304.25509      0.33240288     0.096985399    31.545605      28.017503      28.690995      25357.936      0.082         -3280.5614    
      8300   303.48303      0.14749323     0.1268768      31.57476       27.957864      29.041904      25637.114      0.083         -1455.645     
      8400   304.67308     -0.042198032    0.1160763      31.603915      27.900911      28.886555      25471.529      0.084          416.4622     
      8500   302.01919      0.09546835     0.10375303     31.63307       27.983678      28.614967      25330.244      0.085         -942.19936    
      8600   297.52846      0.21808334     0.050857181    31.662225      27.955149      28.795984      25487.965      0.086         -2152.3153    
      8700   296.75092     -0.036390644    0.086244514    31.691379      28.086597      28.539937      25403.484      0.087          359.14774    
      8800   299.49717      0.54076305     0.1146462      31.720534      28.282392      28.742337      25785.687      0.088         -5336.9163    
      8900   292.84152      0.66275188     0.13905979     31.749689      28.275017      28.680127      25746.81       0.089         -6540.8525    
      9000   295.51391      0.26781563     0.073158897    31.778844      28.177792      28.309652      25350.095      0.09          -2643.1347    
      9100   299.84484      0.065018719    0.027332498    31.807999      28.218538      28.373428      25467.286      0.091         -641.68487    
      9200   298.08961     -0.15934895     0.17984688     31.837154      28.261539      28.378294      25533.852      0.092          1572.6519    
      9300   294.27986      0.054211528    0.055744382    31.866309      28.329273      28.369527      25610.572      0.093         -535.02618    
      9400   304.70232      0.11416439     0.12581697     31.895464      28.313456      28.525404      25760.46       0.094         -1126.715     
      9500   298.80133      0.39122612     0.12700034     31.924619      27.968438      28.573157      25512.45       0.095         -3861.1016    
      9600   307.70749     -0.1023176      0.084427489    31.953774      28.03529       28.390312      25432.987      0.096          1009.7962    
      9700   301.67335      0.088984073    0.038997508    31.982928      28.337407      28.104942      25471.881      0.097         -878.20452    
      9800   300.17105     -0.013232245    0.033926918    32.012083      27.984634      28.42969       25468.637      0.098          130.5921     
      9900   302.0244      -0.20013425     0.16657715     32.041238      28.000369      28.658488      25711.435      0.099          1975.1715    
     10000   302.50392     -0.0059604857   0.080170922    32.070393      27.919344      28.622758      25628.37       0.1            58.82542     
     10100   300.42841      0.23804057     0.051325466    32.099548      27.895124      28.594881      25604.453      0.101         -2349.2777    
     10200   290.08678      0.010193713    0.20582617     32.128703      27.847584      28.55724       25550.356      0.102         -100.60413    
     10300   292.56786     -0.047145799    0.15142361     32.157858      27.796375      28.542872      25513.671      0.103          465.29286    
     10400   306.66945     -0.017121344    0.11644959     32.187013      27.669462      28.632251      25499.807      0.104          168.97453    
     10500   299.08096      0.29261464     0.1074246      32.216168      27.810292      28.664508      25681.709      0.105         -2887.8819    
     10600   304.7417       0.054717591    0.058030972    32.245323      27.660552      28.826858      25711.35       0.106         -540.02064    
     10700   307.04972      0.14801177     0.1150636      32.274478      27.350812      28.986413      25587.268      0.107         -1460.7626    
     10800   297.89488      0.21034889     0.13325779     32.303632      27.431114      28.867233      25579.966      0.108         -2075.9821    
     10900   292.0734       0.30929637     0.20092016     32.332787      27.516488      28.792761      25616.481      0.109         -3052.5178    
     11000   300.48144     -0.014547016    0.10074974     32.361942      27.297266      29.064893      25675.71       0.11           143.56789    
     11100   298.82872     -0.26600511     0.07586053     32.391097      27.379995      28.940875      25666.738      0.111          2625.2663    
     11200   290.47162     -0.069392165    0.1469994      32.420252      27.375895      29.046716      25779.931      0.112          684.84742    
     11300   302.91454     -0.12976015     0.061494233    32.449407      27.28361       28.962128      25641.242      0.113          1280.6331    
     11400   295.24011     -0.18771048     0.025595864    32.478562      27.334128      28.839186      25602.655      0.114          1852.5584    
     11500   301.87284      0.3629134      0.048620373    32.507717      27.502285      28.677961      25639.144      0.115         -3581.6768    
     11600   296.38216      0.15773227     0.18831166     32.536872      27.311124      28.766545      25562.485      0.116         -1556.6965    
     11700   298.84238      0.058480932   -0.040058841    32.566027      27.533852      28.604536      25648.776      0.117         -577.16193    
     11800   298.21351     -0.038775354    0.071341688    32.595181      27.453726      28.513476      25515.546      0.118          382.68299    
     11900   303.35645     -0.25062181     0.053437078    32.624336      27.685636      28.438482      25686.362      0.119          2473.4449    
     12000   308.22984      0.015232383    0.045576046    32.653491      27.717585      28.313098      25625.503      0.12          -150.33194    
     12100   295.94768     -0.29412036     0.06232544     32.682646      27.449206      28.563723      25624.879      0.121          2902.7423    
     12200   294.65198     -0.079956753    0.11516676     32.711801      27.513594      28.381441      25543.842      0.122          789.1118     
     12300   311.39732      0.21518738     0.072612163    32.740956      27.618175      28.406896      25686.806      0.123         -2123.7343    
     12400   301.83277      0.38714616     0.23358237     32.770111      27.668453      28.478943      25821.809      0.124         -3820.8355    
     12500   300.34199      0.22151974     0.17647035     32.799266      27.418117      28.809956      25908.624      0.125         -2186.2299    
     12600   300.13212      0.25613026    -0.093408122    32.828421      27.664197      28.423692      25813.598      0.126         -2527.8091    
     12700   301.39013     -0.15806218     0.15074569     32.857576      27.477669      28.288784      25540.516      0.127          1559.9525    
     12800   299.57638     -0.13306472     0.034029155    32.88673       27.218086      28.419809      25438.965      0.128          1313.2466    
     12900   303.49766      0.11195719     0.15636161     32.915885      27.312753      28.467768      25593.191      0.129         -1104.9315    
     13000   304.40058      0.01011355     0.079996006    32.94504       27.236399      28.355039      25443.097      0.13          -99.812979    
     13100   303.14113      0.26215445     0.099335987    32.974195      27.248652      28.473859      25583.829      0.131         -2587.2633    
     13200   295.60138      0.014342267    0.060170823    33.00335       27.48056       28.020382      25413.1        0.132         -141.54717    
     13300   297.35051      0.034443799    0.0029884621   33.032505      27.393108      28.288999      25597.668      0.133         -339.93387    
     13400   294.67536      0.49449626     0.14035055     33.06166       27.439623      28.358788      25727.078      0.134         -4880.2987    
     13500   304.52895      0.27338619     0.20525624     33.090815      27.34782       28.349826      25655.505      0.135         -2698.1119    
     13600   301.17709      0.014329052    0.1309634      33.11997       27.30509       28.251923      25549.45       0.136         -141.41675    
     13700   304.15027      0.29158283     0.069416953    33.149125      27.116398      28.396019      25524.751      0.137         -2877.6987    
     13800   295.29598     -0.057966805    0.14293426     33.17828       27.066068      28.734109      25803.389      0.138          572.08788    
     13900   306.66537     -0.13280044     0.041674752    33.207434      27.085151      28.484755      25619.996      0.139          1310.6384    
     14000   296.54358      0.080589303    0.0059560041   33.236589      27.071573      28.586079      25720.803      0.14          -795.35458    
     14100   295.51088      0.44540117     0.052944101    33.265744      27.20092       28.280893      25590.216      0.141         -4395.7677    
     14200   290.35449      0.40710021     0.14149561     33.294899      26.888691      28.491867      25507.522      0.142         -4017.7667    
     14300   300.55746     -0.15103757     0.10901757     33.324054      27.080869      28.38374       25614.745      0.143          1490.6249    
     14400   299.59478      0.11089448     0.10708943     33.353209      27.01947       28.416226      25608.306      0.144         -1094.4434    
     14500   296.78787      0.30274296     0.11334139     33.382364      27.017733      28.283766      25509.575      0.145         -2987.8408    
     14600   295.48258     -0.1343405      0.14284037     33.411519      26.975009      28.386528      25584.096      0.146          1325.8377    
     14700   303.18802     -0.23568683     0.015273473    33.440674      26.963357      28.291515      25509.69       0.147          2326.0482    
     14800   299.02321      0.16472117     0.17578614     33.469829      26.819487      28.710004      25771.352      0.148         -1625.6716    
     14900   293.72996      0.2952158      0.044172652    33.498983      26.829675      28.732382      25823.712      0.149         -2913.5534    
     15000   302.78473      0.3525408      0.076183012    33.528138      26.651121      28.676558      25624.296      0.15          -3479.3072    
     15100   298.8272       0.060308802    0.26398902     33.557293      26.871199      28.429369      25635.464      0.151         -595.2016     
     15200   290.72283      0.019586736    0.015518028    33.586448      27.003894      28.160191      25540.305      0.152         -193.30605    
     15300   299.24527     -0.14875483     0.062947315    33.615603      26.978648      28.166267      25544.087      0.153          1468.0961    
     15400   303.96847     -0.038072119    0.088754015    33.644758      27.086403      28.293068      25783.911      0.154          375.7426     
     15500   296.85143      0.04318731     0.088976526    33.673913      27.007484      28.378788      25809.023      0.155         -426.22561    
     15600   300.08516      0.26631094     0.051196326    33.703068      26.86317       28.28435       25607.838      0.156         -2628.2847    
     15700   299.09633     -0.027084097    0.11191579     33.732223      26.65319       28.267876      25414.837      0.157          267.29926    
     15800   299.16789      0.29422853     0.10153269     33.761378      26.688639      28.287807      25488.593      0.158         -2903.8098    
     15900   309.11074      0.23363912     0.11137322     33.790532      26.521863      28.137788      25216.745      0.159         -2305.8389    
     16000   299.0706      -0.028168376    0.08235994     33.819687      26.758438      28.001815      25340.579      0.16           278.00025    
     16100   302.65061      0.33562693     0.1415891      33.848842      26.854125      28.079726      25523.938      0.161         -3312.3803    
     16200   299.77854      0.14478435     0.11352113     33.877997      26.767979      28.054158      25440.787      0.162         -1428.9104    
     16300   299.04654     -0.068811259    0.12551672     33.907152      26.655371      28.187472      25476.055      0.163          679.11433    
     16400   299.38734     -0.029591833    0.10566914     33.936307      26.35529       28.234563      25253.027      0.164          292.04868    
     16500   296.95583      0.25985366    -0.12223683     33.965462      26.490416      28.427112      25577.556      0.165         -2564.5563    
     16600   299.11264      0.11926702     0.16290013     33.994617      26.442899      28.301384      25440.573      0.166         -1177.0739    
     16700   299.87446      0.26183919     0.14546456     34.023772      26.36187       28.359336      25436.347      0.167         -2584.1519    
     16800   296.4775      -0.018638872    0.085779147    34.052927      26.285702      28.427941      25445.994      0.168          183.95136    
     16900   309.68385     -0.059287521    0.10920895     34.082081      26.346023      28.387943      25490.309      0.169          585.12234    
     17000   303.45425      0.13345082     0.034064755    34.111236      26.47084       28.160343      25427.468      0.17          -1317.0572    
     17100   309.48101     -0.082585577    0.065046454    34.140391      26.388293      28.190847      25397.322      0.171          815.05628    
     17200   300.64802      0.20145983     0.070513703    34.169546      26.560865      28.097634      25500.646      0.172         -1988.2539    
     17300   298.93676      0.13605471     0.090023448    34.198701      26.712124      27.827675      25421.136      0.173         -1342.7556    
     17400   312.70101      0.066459673    0.027216673    34.227856      26.510655      27.899189      25315.804      0.174         -655.90598    
     17500   304.78021      0.29771725    -0.010373176    34.257011      26.500379      27.911964      25339.145      0.175         -2938.2408    
     17600   294.38775      0.18657906     0.11234531     34.286166      26.679234      27.822555      25450.087      0.176         -1841.3921    
     17700   307.04345      0.10191256    -0.010825547    34.315321      26.837724      27.696035      25506.529      0.177         -1005.7988    
     17800   300.12248      0.14479831     0.10062967     34.344476      26.607579      27.750139      25358.725      0.178         -1429.0482    
     17900   294.38459      0.036112411    0.076989968    34.373631      26.531898      27.679939      25244.039      0.179         -356.40179    
     18000   303.22604      0.052395399    0.15472358     34.402785      26.353762      27.911921      25306.143      0.18          -517.10238    
     18100   299.64657      0.31744414     0.080231822    34.43194       26.518136      27.817953      25399.763      0.181         -3132.9301    
     18200   294.84252      0.077289838    0.17530433     34.461095      26.492949      27.599227      25197.433      0.182         -762.79139    
     18300   299.66027     -0.119658       0.041424099    34.49025       26.44792       27.621195      25195.926      0.183          1180.9326    
     18400   301.72228     -0.074959882    0.049446114    34.519405      26.338609      27.739285      25220.367      0.184          739.79652    
     18500   301.68629      0.035583131    0.1071414      34.54856       26.389527      27.763674      25312.701      0.185         -351.1782     
     18600   308.6026       0.1612729      0.14280851     34.577715      26.366175      27.522581      25091.844      0.186         -1591.6398    
     18700   297.80284     -0.073620105    0.099766044    34.60687       26.205805      27.495479      24935.673      0.187          726.57394    
     18800   302.09613     -0.19036419     0.040478758    34.636025      26.367891      27.597334      25204.064      0.188          1878.7484    
     18900   309.8863       0.082196153    0.095494158    34.66518       26.346979      27.752804      25347.267      0.189         -811.21295    
     19000   305.54458     -0.15637745    -0.058586981    34.694334      26.357492      27.677976      25310.281      0.19           1543.3255    
     19100   292.35938     -0.26859514    -0.080374918    34.723489      26.399123      27.519043      25225.871      0.191          2650.8279    
     19200   298.39655     -0.28039167     0.15410352     34.752644      26.394057      27.550358      25270.932      0.192          2767.2506    
     19300   304.36146     -0.097545491   -0.055250865    34.781799      26.319275      27.715379      25371.538      0.193          962.69914    
     19400   289.25134      0.03275345     0.21486218     34.810954      26.084848      27.797662      25241.346      0.194         -323.25142    
     19500   297.44869      0.056274783    0.045188721    34.840109      26.297835      27.932778      25592.554      0.195         -555.38892    
     19600   305.18053      0.37205871     0.093808347    34.869264      26.402051      27.750706      25547.858      0.196         -3671.934     
     19700   295.6571       0.28145258     0.17661981     34.898419      26.421812      27.648559      25494.169      0.197         -2777.721     
     19800   291.82433      0.38528754     0.16360984     34.927574      26.446198      27.718024      25603.18       0.198         -3802.4924    
     19900   298.51476      0.38272945     0.089998812    34.956729      26.219529      27.83065       25508.153      0.199         -3777.246     
     20000   301.48555      0.072320871    0.10153643     34.985883      26.296347      27.752255      25532.1        0.2           -713.7515     
     20100   295.07561     -0.066344488    0.058130797    35.015038      26.414535      27.627552      25552.888      0.201          654.76919    
     20200   302.38844      0.055621655    0.0078608028   35.044193      26.492965      27.314499      25359.452      0.202         -548.94305    
     20300   298.26929     -0.063891174    0.15367674     35.073348      26.41507       27.411212      25395.527      0.203          630.55686    
     20400   293.35118     -0.039399515    0.09102414     35.102503      26.539741      27.554991      25670.542      0.204          388.84298    
     20500   296.77646      0.061330365    0.10888076     35.131658      26.579231      27.799244      25958.168      0.205         -605.28364    
     20600   298.6995      -0.14162301     0.1060153      35.160813      26.417459      27.711092      25739.707      0.206          1397.7104    
     20700   290.88473     -0.077444923    0.1552685      35.189968      26.262655      27.623816      25529.433      0.207          764.32197    
     20800   299.22368     -0.064231333    0.11912164     35.219123      26.566446      27.616967      25839.729      0.208          633.91397    
     20900   301.55669     -0.036903588    0.005288446    35.248278      26.563714      27.627154      25867.999      0.209          364.21009    
     21000   299.17528     -0.064929928    0.071247661    35.277433      26.43049       27.582427      25717.85       0.21           640.80856    
     21100   302.89192      0.20069505     0.038204741    35.306587      26.439138      27.612101      25775.227      0.211         -1980.7062    
     21200   300.84998     -0.098904428    0.085513389    35.335742      26.482691      27.591521      25819.746      0.212          976.11082    
     21300   298.86431      0.36397457     0.006909905    35.364897      26.638044      27.526758      25931.628      0.213         -3592.1497    
     21400   300.83386      0.36523071     0.10772039     35.394052      26.715498      27.704235      26196.286      0.214         -3604.5469    
     21500   303.47841      0.031509291   -0.033857362    35.423207      26.69723       27.575132      26077.844      0.215         -310.97252    
     21600   296.94184     -0.088020539    0.012161269    35.452362      26.56795       27.746941      26134.749      0.216          868.69518    
     21700   307.2161       0.28343942     0.051404661    35.481517      26.375201      27.757067      25975.955      0.217         -2797.3296    
     21800   299.93345      0.48871788     0.16123135     35.510672      26.258258      27.675425      25805.905      0.218         -4823.2705    
     21900   300.04391      0.12964078     0.03976192     35.539827      26.12801       27.860122      25870.49       0.219         -1279.4551    
     22000   290.47761      0.014718918    0.06505073     35.568982      26.091132      27.581238      25596.354      0.22          -145.26443    
     22100   300.28177      0.03738293     0.12052068     35.598136      26.098091      27.551283      25596.337      0.221         -368.94083    
     22200   299.21248      0.073297284    0.0057498772   35.627291      26.063247      27.560525      25591.681      0.222         -723.38795    
     22300   294.67732      0.29230362     0.11803922     35.656446      26.045757      27.559767      25594.731      0.223         -2884.8124    
     22400   305.89744      0.38064537     0.045030343    35.685601      25.963812      27.598399      25570.861      0.224         -3756.6777    
     22500   307.34659      0.20658312     0.21821368     35.714756      26.194161      27.430936      25662.136      0.225         -2038.8169    
     22600   297.04354      0.30052055     0.089161145    35.743911      26.083547      27.47024       25611.273      0.226         -2965.9072    
     22700   298.03486     -0.15289604     0.13932918     35.773066      26.232607      27.150971      25479.035      0.227          1508.9666    
     22800   304.92463     -0.019988093   -0.018887182    35.802221      26.10521       27.162111      25386.374      0.228          197.26714    
     22900   297.27638      0.17211559     0.12535103     35.831376      26.014927      27.345013      25489.671      0.229         -1698.6488    
     23000   298.46811     -0.0081074794   0.090562594    35.860531      26.045565      27.480357      25666.867      0.23           80.0146      
     23100   301.55329      0.32911055     0.0044162272   35.889685      26.128838      27.675916      25953.251      0.231         -3248.0686    
     23200   295.90997      0.27172323     0.1312657      35.91884       25.834618      27.627551      25636.972      0.232         -2681.6997    
     23300   305.74232      0.13682886     0.048572941    35.947995      25.854759      27.568825      25623.203      0.233         -1350.3958    
     23400   293.95849      0.11676215     0.19945897     35.97715       26.042358      27.481217      25747.972      0.234         -1152.3528    
     23500   296.90777      0.06099177     0.21594432     36.006305      26.050248      27.351999      25655.441      0.235         -601.94197    
     23600   305.06682      0.075374349    0.047844279    36.03546       25.973261      27.37284       25619.84       0.236         -743.88698    
     23700   297.75328     -0.087207108    0.023431658    36.064615      25.888681      27.571888      25742.916      0.237          860.66724    
     23800   300.43661      0.090733832    0.15268406     36.09377       26.095744      27.408837      25816.213      0.238         -895.4733     
     23900   297.98606      0.10558148     0.095360805    36.122925      26.421709      27.258464      26016.279      0.239         -1042.0082    
     24000   307.98498     -0.11486774     0.093548798    36.15208       26.380209      27.3125        26047.915      0.24           1133.6565    
     24100   300.22146      0.032666063    0.096517877    36.181235      26.310395      27.331629      26018.141      0.241         -322.38898    
     24200   293.94442     -0.024045528    0.091465062    36.210389      26.024974      27.672072      26077.454      0.242          237.31091    
     24300   303.6466      -0.12653886     0.096262476    36.239544      25.784704      27.783202      25961.344      0.243          1248.8415    
     24400   292.26065     -0.11411941     0.041619849    36.268699      25.74535       27.626514      25796.268      0.244          1126.271     
     24500   303.96065      0.14300318    -0.0013759915   36.297854      25.878546      27.608377      25933.534      0.245         -1411.3316    
     24600   304.31768      0.012582632    0.11777318     36.327009      25.627888      27.655637      25746.97       0.246         -124.18092    
     24700   292.11483      0.18698199     0.093563019    36.356164      25.707533      27.793126      25976.214      0.247         -1845.3688    
     24800   303.7958       0.19940817     0.10351639     36.385319      25.794913      27.614884      25918.118      0.248         -1968.0056    
     24900   292.75866     -0.073428654    0.0037286607   36.414474      25.60739       27.510637      25653.108      0.249          724.68448    
     25000   295.39789      0.085423352    0.0099305644   36.443629      25.610752      27.665249      25821.326      0.25          -843.06294    
     25100   303.22943      0.30880821     0.15680344     36.472784      25.644836      27.538053      25757.403      0.251         -3047.7001    
     25200   293.63201     -0.059771541    0.06589415     36.501938      25.705827      27.462843      25768.729      0.252          589.89924    
     25300   305.74686     -0.12908889     0.053480641    36.531093      25.76706       27.392438      25784.472      0.253          1274.0083    
     25400   299.1336      -0.23147085     0.04180583     36.560248      25.411265      27.371867      25429.618      0.254          2284.4397    
     25500   298.93041      0.023241459    0.17877534     36.589403      25.442803      27.753361      25836.631      0.255         -229.37536    
     25600   294.3285      -0.11905159     0.14491791     36.618558      25.539         27.660053      25867.719      0.256          1174.9478    
     25700   303.84071     -0.012711139    0.00098632324  36.647713      25.735774      27.826516      26244.78       0.257          125.44919    
     25800   295.58636     -0.05574633     0.020694781    36.676868      25.562206      27.825632      26087.689      0.258          550.1735     
     25900   295.77182     -0.018708797    0.12102703     36.706023      25.271641      27.925311      25904.117      0.259          184.64147    
     26000   297.29769     -0.10110595    -0.038182726    36.735178      25.100784      27.915133      25740.036      0.26           997.83814    
     26100   305.42543      0.12907481     0.11322486     36.764333      25.397061      28.038606      26179.814      0.261         -1273.8693    
     26200   296.84022     -0.039803956    0.16601829     36.793487      25.312685      27.970376      26049.985      0.262          392.8345     
     26300   295.98583      0.041990446    0.092215547    36.822642      25.468498      27.763917      26037.485      0.263         -414.41348    
     26400   301.46185      0.11157618     0.040703396    36.851797      25.599679      27.781301      26208.718      0.264         -1101.1713    
     26500   293.36526      0.244824       0.13066903     36.880952      25.21476       27.981543      26021.278      0.265         -2416.225     
     26600   295.92244      0.039505609    0.0042241824   36.910107      25.193707      27.851453      25899.134      0.266         -389.89005    
     26700   297.49528      0.029216702    0.074124373    36.939262      25.242823      27.863542      25981.394      0.267         -288.34643    
     26800   305.58257     -0.055698636    0.064639575    36.968417      25.484529      27.528004      25934.758      0.268          549.70279    
     26900   302.73665      0.079313284    0.16033729     36.997572      25.653323      27.597983      26193.539      0.269         -782.76125    
     27000   302.87873     -0.035858631   -0.0058354312   37.026727      25.436583      27.473012      25875          0.27           353.89717    
     27100   302.90201     -0.011665353    0.11165172     37.055882      25.296902      27.426171      25709.266      0.271          115.12808    
     27200   303.16412      0.074741143    0.090756762    37.085036      25.179609      27.620681      25791.825      0.272         -737.63773    
     27300   293.31432      0.21197132     0.066539205    37.114191      25.023901      27.834783      25851.328      0.273         -2091.9943    
     27400   300.54341      0.072276471    0.084434312    37.143346      24.770104      27.998699      25760.05       0.274         -713.31331    
     27500   290.71844      0.14881472     0.090667348    37.172501      24.821071      28.039418      25870.886      0.275         -1468.6871    
     27600   295.34837      0.17662268     0.074955417    37.201656      24.835916      27.766676      25654.665      0.276         -1743.1303    
     27700   300.53424      0.016315488    0.12734951     37.230811      24.951326      27.715057      25746.126      0.277         -161.02135    
     27800   298.01358     -0.056825996    0.072975891    37.259966      24.983131      27.866192      25939.82       0.278          560.82898    
     27900   296.15086      0.12511563     0.13423461     37.289121      24.852846      27.985624      25935.419      0.279         -1234.7953    
     28000   307.47543      0.092213065    0.17227542     37.318276      24.828222      28.033653      25974.481      0.28          -910.07219    
     28100   296.23468      0.28457427     0.22946846     37.347431      24.741327      27.711801      25606.397      0.281         -2808.5296    
     28200   300.58643      0.23773409     0.13100721     37.376586      24.880713      27.534608      25605.976      0.282         -2346.253     
     28300   304.23496      0.22171563     0.19391798     37.40574       24.851923      27.70955       25758.925      0.283         -2188.1632    
     28400   299.01185      0.15637308     0.14385646     37.434895      24.948554      27.506337      25689.448      0.284         -1543.2823    
     28500   303.72348      0.42270631     0.17493489     37.46405       24.987962      27.413687      25663.331      0.285         -4171.7869    
     28600   294.28007     -0.00037523764  0.20114686     37.493205      25.012198      27.490563      25780.305      0.286          3.7033076    
     28700   297.63044      0.26146156     0.16934179     37.52236       24.96204       27.870664      26104.63       0.287         -2580.4249    
     28800   300.42327      0.18248147     0.031591169    37.551515      24.96504       27.840545      26099.816      0.288         -1800.9521    
     28900   306.7374       0.11715121     0.15202905     37.58067       24.880559      27.798671      25992.538      0.289         -1156.1925    
     29000   296.05712      0.16146767     0.10744748     37.609825      24.605474      27.884821      25804.825      0.29          -1593.562     
     29100   297.42748      0.019380408    0.17213592     37.63898       24.618105      27.851948      25807.625      0.291         -191.26975    
     29200   303.32423     -0.29372839     0.11437659     37.668135      24.717195      27.792478      25876.204      0.292          2898.8739    
     29300   300.704       -0.13992898     0.013901186    37.697289      24.822893      27.765025      25981.283      0.293          1380.9917    
     29400   305.69372      0.15065227     0.17986369     37.726444      24.927941      27.720728      26069.752      0.294         -1486.8223    
     29500   299.82311      0.012209669    0.15010304     37.755599      24.866902      27.666521      25975.122      0.295         -120.50006    
     29600   303.94121     -0.052119216    0.14614412     37.784754      24.744504      27.605085      25809.788      0.296          514.37667    
     29700   303.21172      0.074765569    0.1490287      37.813909      24.816389      27.629295      25927.459      0.297         -737.8788     
     29800   296.79303      0.12344035    -0.023849027    37.843064      24.80443       27.633965      25939.329      0.298         -1218.2615    
     29900   299.50365      0.2532893      0.11550908     37.872219      24.861746      27.70619       26087.303      0.299         -2499.771     
     30000   294.54103      0.20928221     0.089592344    37.901374      24.785552      27.76616       26083.711      0.3           -2065.4549    
     30100   293.93358      0.12801334     0.10215424     37.930529      25.012767      27.487215      26078.426      0.301         -1263.3934    
     30200   300.8161       0.5864894      0.11001498     37.959684      24.798931      27.477963      25866.644      0.302         -5788.2004    
     30300   297.14051      0.084506757    0.14940854     37.988838      24.598032      27.809429      25986.54       0.303         -834.01685    
     30400   301.61784     -0.26724778     0.12293014     38.017993      24.539533      27.812186      25947.206      0.304          2637.5305    
     30500   308.21208      0.068243718    0.015277969    38.047148      24.719868      27.601784      25960.043      0.305         -673.51313    
     30600   304.1279       0.051657431    0.15206839     38.076303      24.765271      27.063583      25520.146      0.306         -509.81921    
     30700   299.46168      0.20175468     0.063096271    38.105458      24.629954      27.206394      25534.172      0.307         -1991.1639    
     30800   299.84784      0.20074806     0.074889739    38.134613      24.592304      27.281262      25584.859      0.308         -1981.2293    
     30900   297.15415      0.45292653     0.2075022      38.163768      24.670862      27.249034      25655.866      0.309         -4470.0373    
     31000   298.77654      0.066869528    0.11609538     38.192923      24.54646       27.218546      25517.415      0.31          -659.95093    
     31100   304.90882     -0.0032522667   0.10022543     38.222078      24.340286      27.194944      25300.444      0.311          32.097377    
     31200   296.20428      0.018238462    0.12462241     38.251233      24.544492      27.481334      25801.045      0.312         -179.99963    
     31300   308.49685     -0.14336329     0.079748442    38.280388      24.580508      27.390593      25773.217      0.313          1414.8857    
     31400   306.03569      0.090883193    0.16027877     38.309542      24.731824      27.254423      25822.608      0.314         -896.94738    
     31500   295.70246      0.011512679    0.098940264    38.338697      24.705798      27.149255      25715.451      0.315         -113.62131    
     31600   304.23997      0.29280408     0.1527772      38.367852      24.816126      27.3044        25997.651      0.316         -2889.7516    
     31700   310.36266     -0.0091673827   0.1648066      38.397007      24.736461      27.387377      26012.696      0.317          90.475033    
     31800   302.69987      0.21147358     0.20173866     38.426162      24.620623      27.498692      26015.854      0.318         -2087.0819    
     31900   298.10065      0.34449872     0.10487976     38.455317      24.555273      27.434359      25905.738      0.319         -3399.938     
     32000   298.55204      0.029712858    0.093899451    38.484472      24.60343       27.350139      25896.48       0.32          -293.24311    
     32100   302.67278      0.086098373    0.089046781    38.513627      24.726781      27.206446      25909.189      0.321         -849.72487    
     32200   302.34688     -0.073463154    0.12379152     38.542782      24.627083      27.241759      25857.776      0.322          725.02496    
     32300   299.75064      0.12389652     0.099615384    38.571937      24.644289      27.25508       25908.078      0.323         -1222.7636    
     32400   299.5296       0.14954788     0.14702775     38.601091      24.490678      27.236655      25748.632      0.324         -1475.9229    
     32500   301.91204      0.44378837     0.23004568     38.630246      24.453098      27.539892      26014.986      0.325         -4379.8507    
     32600   294.11434      0.21395261     0.16058218     38.659401      24.354799      27.225893      25634.32       0.326         -2111.5481    
     32700   296.41441     -0.014932453    0.091976729    38.688556      24.614391      27.085454      25793.349      0.327          147.37185    
     32800   307.0753       0.24919051     0.1722001      38.717711      24.694385      27.144679      25953.301      0.328         -2459.3191    
     32900   293.03243      0.13198294     0.12722433     38.746866      24.518343      27.166663      25808.573      0.329         -1302.5703    
     33000   301.05479     -0.021010085    0.065826089    38.776021      24.697208      27.06077       25915.002      0.33           207.35342    
     33100   303.93935     -0.20094963     0.16849576     38.805176      24.52778       27.01203       25710.18       0.331          1983.2186    
     33200   298.53691      0.30723791     0.16979973     38.834331      24.748329      27.159501      26102.583      0.332         -3032.2025    
     33300   297.44036     -0.21875452     0.0623156      38.863486      24.805261      26.899915      25932.026      0.333          2158.9393    
     33400   301.28026      0.067218446    0.10560529     38.89264       24.623162      26.695325      25565.04       0.334         -663.39449    
     33500   298.85873      0.43211177     0.27616217     38.921795      24.452373      26.833905      25538.639      0.335         -4264.6116    
     33600   300.68178      0.076654616    0.019849714    38.95095       24.504191      26.841229      25618.921      0.336         -756.52224    
     33700   301.38325      0.35796287     0.11650579     38.980105      24.705697      26.966094      25969.175      0.337         -3532.8189    
     33800   300.49897      0.26266894     0.28223413     39.00926       24.595548      26.86018       25771.11       0.338         -2592.3408    
     33900   290.40721      0.36318732     0.26682164     39.038415      24.787617      26.805455      25938.816      0.339         -3584.3801    
     34000   299.25729      0.30686498     0.21623197     39.06757       24.773728      26.802284      25940.573      0.34          -3028.5219    
     34100   308.94525      0.44263881     0.043945794    39.096725      24.783004      26.797945      25965.447      0.341         -4368.5054    
     34200   297.89693      0.16379916     0.14308241     39.12588       25.108454      26.542505      26075.1        0.342         -1616.572     
     34300   299.38713      0.32871365     0.14752166     39.155035      25.143528      26.552413      26140.737      0.343         -3244.1515    
     34400   304.04326      0.28391229     0.26500295     39.18419       25.065764      26.330594      25861.426      0.344         -2801.9964    
     34500   298.0928       0.16824064     0.1352247      39.213344      25.017584      26.22929       25731.54       0.345         -1660.406     
     34600   301.88416      0.029176073    0.18112347     39.242499      24.854202      26.482498      25829.467      0.346         -287.94545    
     34700   294.81403      0.19243804     0.11097287     39.271654      24.640631      26.495339      25638.965      0.347         -1899.2158    
     34800   298.61201      0.2058534      0.20072651     39.300809      24.727893      26.480901      25734.834      0.348         -2031.6151    
     34900   304.66113     -0.32764309     0.070173504    39.329964      24.422407      27.069141      26000.787      0.349          3233.5859    
     35000   299.45657     -0.18107687     0.032071301    39.359119      24.387625      27.167417      26077.336      0.35           1787.0897    
     35100   302.22642      0.036173814    0.16352333     39.388274      24.556658      27.138064      26249.139      0.351         -357.00779    
     35200   300.74299      0.01019589     0.14691243     39.417429      24.621015      27.108841      26309.052      0.352         -100.62561    
     35300   295.6203      -0.11962043     0.20375123     39.446584      24.684884      26.930081      26222.745      0.353          1180.5618    
     35400   300.20693      0.098676526    0.15062593     39.475739      24.747613      26.898666      26278.121      0.354         -973.86159    
     35500   303.1611       0.2098885      0.15227163     39.504893      24.712152      26.766324      26130.649      0.355         -2071.4385    
     35600   298.20289     -0.24468331     0.083484982    39.534048      24.631302      26.710119      26009.648      0.356          2414.8365    
     35700   305.85597      0.0069922197   0.10161995     39.563203      24.483499      26.575282      25742.031      0.357         -69.007843    
     35800   301.60152      0.60234308     0.13620051     39.592358      24.548189      26.831668      26078.253      0.358         -5944.664     
     35900   301.74246      0.27654897     0.22196899     39.621513      24.70988       26.700514      26140.947      0.359         -2729.3262    
     36000   299.87501     -0.071957947    0.015419016    39.650668      24.47784       26.668824      25883.765      0.36           710.16972    
     36100   303.90175      0.21970941     0.20994153     39.679823      24.665035      26.514402      25949.757      0.361         -2168.3633    
     36200   304.04948      0.6098459      0.30146061     39.708978      24.481341      26.578336      25837.572      0.362         -6018.7111    
     36300   299.8214       0.31027761     0.082189261    39.738133      24.256464      26.740085      25774.944      0.363         -3062.2019    
     36400   313.01243      0.56738934     0.14841111     39.767288      24.43728       26.853667      26096.509      0.364         -5599.6974    
     36500   298.06435      0.21877637     0.13708129     39.796442      24.314766      26.780533      25913.947      0.365         -2159.1549    
     36600   297.23908      0.2171617      0.19893965     39.825597      24.319811      27.009212      26159.8        0.366         -2143.2193    
     36700   304.15202      0.14690617     0.098098642    39.854752      24.36917       26.799526      26028.429      0.367         -1449.8511    
     36800   293.12887      0.18610704     0.15864271     39.883907      24.412774      26.700962      25998.108      0.368         -1836.7337    
     36900   300.05206      0.077766601    0.16927999     39.913062      24.260136      26.728195      25880.813      0.369         -767.49668    
     37000   302.58162      0.31963198     0.16865361     39.942217      24.390367      26.780836      26090.033      0.37          -3154.5224    
     37100   298.32354      0.044614016    0.15041528     39.971372      24.591357      26.657806      26203.297      0.371         -440.3061     
     37200   301.42752     -0.091785473    0.13763203     40.000527      24.515928      26.468193      25956.034      0.372          905.85219    
     37300   297.78624      0.41226459     0.11304755     40.029682      24.538598      26.485072      26015.552      0.373         -4068.7351    
     37400   299.07602      0.39955472     0.1204768      40.058837      24.578218      26.518833      26109.776      0.374         -3943.2985    
     37500   302.17887      0.29945193     0.1863988      40.087991      24.635498      26.512903      26183.815      0.375         -2955.3607    
     37600   306.5689       0.3857945      0.25151485     40.117146      24.70044       26.442597      26202.264      0.376         -3807.4957    
     37700   296.50179      0.27805646     0.14155691     40.146301      24.609819      26.341262      26024.988      0.377         -2744.2039    
     37800   301.0274       0.36113297     0.15083102     40.175456      24.432361      26.637476      26146.848      0.378         -3564.1053    
     37900   307.17622     -0.035267653    0.18179628     40.204611      24.286523      26.615041      25987.729      0.379          348.06467    
     38000   295.11834      0.12502502    -0.0077625909   40.233766      24.392604      26.674642      26178.662      0.38          -1233.901     
     38100   305.61448      0.20680731     0.1814588      40.262921      24.619824      26.500707      26269.251      0.381         -2041.0294    
     38200   302.69363     -0.14077617     0.26550858     40.292076      24.640395      26.603339      26412.132      0.382          1389.3527    
     38300   299.77623      0.1199297      0.15036657     40.321231      24.331861      26.425648      25925.954      0.383         -1183.6141    
     38400   302.81523      0.36609243     0.17544813     40.350386      24.335764      26.636371      26155.783      0.384         -3613.0514    
     38500   297.72371     -0.073016054    0.18370032     40.379541      24.374759      26.612392      26193.023      0.385          720.61242    
     38600   307.33516      0.23863655     0.063172469    40.408695      24.319603      26.842729      26378.978      0.386         -2355.1597    
     38700   300.97542      0.24240518     0.12238271     40.43785       24.136867      26.85229       26208.99       0.387         -2392.3531    
     38800   300.6446       0.21597723     0.083044774    40.467005      24.129238      26.793303      26162          0.388         -2131.5295    
     38900   307.47549      0.13440922     0.094468501    40.49616       23.976886      26.743083      25966.78       0.389         -1326.5158    
     39000   297.34582      0.082412796    0.094160805    40.525315      24.115135      26.849651      26239.452      0.39          -813.35106    
     39100   303.91294      0.023494779    0.023274245    40.55447       23.932872      26.602373      25819.863      0.391         -231.87544    
     39200   300.51869      0.30067144     0.12743867     40.583625      23.857264      26.893803      26038.963      0.392         -2967.3963    
     39300   292.22611      0.41589481     0.19467401     40.61278       24.203578      26.622858      26169.593      0.393         -4104.5626    
     39400   301.71228      0.25380406     0.17562424     40.641935      23.981512      26.742459      26064.672      0.394         -2504.8513    
     39500   307.31458     -0.22078636     0.051838727    40.67109       24.070355      26.556803      25998.248      0.395          2178.992     
     39600   289.22515      0.18618845     0.035805157    40.700244      24.309728      26.380069      26100.754      0.396         -1837.5371    
     39700   297.60657      0.053626834    0.21251193     40.729399      24.380802      26.090921      25908.687      0.397         -529.2557     
     39800   295.94967      0.1023649      0.33551899     40.758554      24.392424      26.183536      26031.67       0.398         -1010.263     
     39900   303.35485      0.13891762     0.084118801    40.787709      24.598287      26.107209      26193.566      0.399         -1371.0103    
     40000   297.66234      0.25363246     0.093310917    40.816864      24.542643      26.136629      26182.465      0.4           -2503.1577    
     40100   302.95617      0.10839771     0.076035168    40.846019      24.440933      26.278104      26233.82       0.401         -1069.8022    
     40200   297.93708      0.21367354     0.096910384    40.875174      24.302605      26.518382      26342.651      0.402         -2108.7939    
     40300   301.10816      0.12423837    -0.04564162     40.904329      24.417769      26.441036      26409.107      0.403         -1226.1374    
     40400   305.68397      0.40173617     0.18872877     40.933484      24.114477      26.618809      26275.148      0.404         -3964.8277    
     40500   301.17659      0.40460422     0.077381334    40.962639      24.28031       26.213724      26071.792      0.405         -3993.1332    
     40600   298.13632      0.11149336     0.12395227     40.991793      24.458084      26.247924      26315.664      0.406         -1100.3539    
     40700   305.20798      0.26646151     0.17056625     41.020948      24.502264      26.054059      26187.094      0.407         -2629.7706    
     40800   301.15384      0.35896131     0.12056581     41.050103      24.356623      26.220187      26216.041      0.408         -3542.6727    
     40900   299.60585      0.27623255    -0.048181624    41.079258      24.349503      26.198943      26205.742      0.409         -2726.2033    
     41000   302.99157      0.17871205     0.030401441    41.108413      24.27571       26.25546       26201.267      0.41          -1763.7508    
     41100   294.63372      0.04493122     0.078307732    41.137568      24.100789      26.301848      26076.911      0.411         -443.43667    
     41200   304.11051     -0.089583074    0.22654803     41.166723      24.056076      26.176636      25922.98       0.412          884.1162     
     41300   301.44993      0.33540308     0.25981978     41.195878      24.163842      26.188324      26069.185      0.413         -3310.171     
     41400   299.89684      0.23174783     0.09320512     41.225033      24.275074      25.971308      25990.546      0.414         -2287.1733    
     41500   296.33468     -0.023243032    0.091436422    41.254188      24.270104      26.137903      26170.403      0.415          229.39089    
     41600   302.83558     -0.12578195     0.16721128     41.283343      24.239395      25.967444      25985.186      0.416          1241.3714    
     41700   293.90477      0.054709702    0.050612555    41.312497      24.235147      25.962254      25993.784      0.417         -539.94278    
     41800   298.12163      0.080384554    0.091260321    41.341652      24.105652      26.230542      26140.505      0.418         -793.33386    
     41900   305.83474      0.25597759     0.24682552     41.370807      24.096216      26.240613      26158.74       0.419         -2526.3024    
     42000   300.87554     -0.11805983     0.039561335    41.399962      23.924194      26.045619      25797.163      0.42           1165.1599    
     42100   303.7517       0.12070209     0.12777851     41.429117      23.992097      26.265135      26106.793      0.421         -1191.237     
     42200   303.85359      0.15878285     0.13283125     41.458272      23.802825      26.216526      25871.097      0.422         -1567.0649    
     42300   294.54449      0.15742967     0.062434634    41.487427      23.644265      26.318287      25816.652      0.423         -1553.71      
     42400   305.01452      0.35014793     0.19613304     41.516582      23.818398      26.012577      25722.757      0.424         -3455.6914    
     42500   296.25138     -0.081481589    0.17108227     41.545737      23.86683       26.23865       26017.327      0.425          804.16076    
     42600   296.5791       0.061246758   -0.0038415976   41.574892      23.883043      26.033976      25850.044      0.426         -604.4585     
     42700   296.85662      0.086069348    0.12740741     41.604046      23.837584      26.054978      25839.762      0.427         -849.43842    
     42800   301.39572      0.3909342      0.11891332     41.633201      23.715184      26.211085      25879.227      0.428         -3858.2205    
     42900   294.46541      0.16756271     0.085799485    41.662356      23.715177      26.181252      25867.866      0.429         -1653.7154    
     43000   301.84948      0.15330689     0.13394877     41.691511      23.748954      26.344988      26084.957      0.43          -1513.0214    
     43100   292.84963      0.20753955     0.14041599     41.720666      23.656539      26.503815      26158.38       0.431         -2048.2562    
     43200   296.76339      0.12237173     0.045265496    41.749821      23.644526      26.637588      26295.421      0.432         -1207.7151    
     43300   301.07487      0.001167572    0.14629314     41.778976      23.936262      26.208891      26209.743      0.433         -11.52304     
     43400   297.00918      0.18042305     0.13714044     41.808131      24.090549      26.280994      26469.713      0.434         -1780.637     
     43500   299.58234      0.13438062     0.16612333     41.837286      24.14159       26.294498      26557.931      0.435         -1326.2337    
     43600   297.97743     -0.087833035    0.021127115    41.866441      23.966054      26.300704      26389.425      0.436          866.84466    
     43700   300.03912      0.046384332    0.020774454    41.895595      23.998953      26.200465      26343.269      0.437         -457.77777    
     43800   305.9533       0.14507435     0.17949711     41.92475       24.103314      26.043754      26317.876      0.438         -1431.7725    
     43900   309.31755      0.17418014     0.16958893     41.953905      24.045493      26.088052      26317.688      0.439         -1719.0244    
     44000   293.40213      0.11608978     0.15997944     41.98306       24.019643      26.247032      26467.982      0.44          -1145.7171    
     44100   308.77918      0.02594492     0.032435176    42.012215      24.078668      26.232084      26536.329      0.441         -256.05645    
     44200   295.10762     -0.065675218    0.12874895     42.04137       23.961644      25.977954      26169.681      0.442          648.164      
     44300   300.53508      0.17915078     0.1321399      42.070525      24.055941      25.815201      26126.173      0.443         -1768.0807    
     44400   307.59426      0.13493248     0.24360164     42.09968       24.054267      25.876762      26204.8        0.444         -1331.68      
     44500   301.26541     -0.10973935     0.093810291    42.128835      23.635835      26.146481      26035.363      0.445          1083.0432    
     44600   303.55765      0.11755851     0.013351078    42.15799       23.710143      26.27807       26266.822      0.446         -1160.2123    
     44700   292.93158     -0.10946908     0.25539977     42.187145      23.669268      26.242322      26203.978      0.447          1080.3759    
     44800   299.64115     -0.064558062   -0.019819628    42.216299      23.354922      26.395618      26024.981      0.448          637.13853    
     44900   301.28694      0.66455416     0.10960304     42.245454      23.462821      26.559289      26325.501      0.449         -6558.6396    
     45000   287.9363       0.32959582     0.21139895     42.274609      23.225166      26.45161       25971.112      0.45          -3252.8579    
     45100   303.03351     -0.046687917    0.013003154    42.303764      23.180655      26.308391      25798.771      0.451          460.77392    
     45200   299.62468      0.19081262     0.093749971    42.332919      23.295166      26.406232      26040.569      0.452         -1883.1742    
     45300   308.54817      0.19128747     0.14114888     42.362074      23.200795      26.626052      26168.984      0.453         -1887.8606    
     45400   299.81038      0.43310492     0.11023622     42.391229      23.250409      26.603509      26220.776      0.454         -4274.4132    
     45500   306.01201      0.192475       0.093686078    42.420384      23.26109       26.589723      26237.259      0.455         -1899.5806    
     45600   303.55874     -0.021669488    0.12150728     42.449539      23.146271      26.38937       25928.837      0.456          213.86122    
     45700   295.80856      0.1297588      0.17448746     42.478694      23.348748      26.31353       26098.399      0.457         -1280.6198    
     45800   304.95518      0.071540329    0.24663879     42.507848      23.151681      26.409598      25990.429      0.458         -706.04815    
     45900   305.17151     -0.12327051     0.057641804    42.537003      23.132093      26.629404      26202.533      0.459          1216.5854    
     46000   296.28433      0.40748827     0.27182057     42.566158      23.132093      26.423441      26017.691      0.46          -4021.5966    
     46100   302.28349      0.40307641     0.16231711     42.595313      23.117417      26.297788      25895.263      0.461         -3978.0549    
     46200   307.02101     -0.0578518      0.11754433     42.624468      23.361539      26.52667       26414.547      0.462          570.95287    
     46300   290.80253      0.1239901      0.0013541942   42.653623      23.277118      26.607383      26417.23       0.463         -1223.6872    
     46400   304.51283      0.34719291     0.1694559      42.682778      23.45394       26.445789      26474.332      0.464         -3426.5276    
     46500   298.04638      0.17922253     0.20000623     42.711933      23.408093      26.19329       26188.179      0.465         -1768.7888    
     46600   296.20802      0.13772264     0.0061167476   42.741088      23.280902      26.342884      26212.516      0.466         -1359.2167    
     46700   306.92295     -0.020560962    0.10532702     42.770243      23.335868      26.266757      26216.344      0.467          202.92092    
     46800   298.95486      0.073511738    0.11465886     42.799397      23.366845      26.309544      26311.829      0.468         -725.50445    
     46900   299.88959     -0.11695378     0.023740752    42.828552      23.311722      25.977035      25935.662      0.469          1154.244     
     47000   302.20355      0.27028483     0.20758357     42.857707      23.199067      26.022295      25872.896      0.47          -2667.5039    
     47100   298.75562     -0.16261736    -0.15825859     42.886862      22.874171      26.255344      25756.53       0.471          1604.9085    
     47200   298.59767      0.18261204     0.18324247     42.916017      23.012179      26.290961      25964.717      0.472         -1802.2407    
     47300   295.81049      0.21174411     0.11263657     42.945172      23.358252      26.070552      26152          0.473         -2089.7519    
     47400   304.19722      0.27472135     0.2557558      42.974327      23.420558      26.074897      26243.933      0.474         -2711.2889    
     47500   301.16175      0.083117282    0.23743321     43.003482      23.241313      26.022624      26008.504      0.475         -820.3038     
     47600   299.34541      0.49313135     0.082167191    43.032637      23.040594      26.407708      26183.177      0.476         -4866.828     
     47700   304.47502      0.52688216     0.2240801      43.061792      23.248014      26.28228       26311.221      0.477         -5199.9226    
     47800   298.50095      0.19662004     0.10111792     43.090946      23.335883      26.241445      26387.486      0.478         -1940.4889    
     47900   302.65639      0.15353803     0.12294205     43.120101      23.538306      25.78376       26169.85       0.479         -1515.3025    
     48000   297.50801      0.11711634     0.024259204    43.149256      23.382395      26.068818      26301.689      0.48          -1155.8484    
     48100   302.42269      0.034001177    0.15089739     43.178411      23.508705      26.122986      26516.621      0.481         -335.56553    
     48200   305.30891      0.2740415      0.28004451     43.207566      23.476897      26.095837      26471.084      0.482         -2704.5793    
     48300   302.06407      0.23203021     0.080466944    43.236721      23.546396      26.362189      26838.526      0.483         -2289.9601    
     48400   291.8046       0.26351584     0.18814744     43.265876      23.449628      26.094834      26475.002      0.484         -2600.6992    
     48500   301.45604     -0.24321772     0.12393665     43.295031      23.157748      25.948308      26016.174      0.485          2400.3723    
     48600   299.64605      0.022953244    0.052107597    43.324186      23.245811      25.884996      26068.93       0.486         -226.53091    
     48700   297.30003      0.14054042     0.14766568     43.353341      23.295685      25.908987      26166.672      0.487         -1387.0261    
     48800   302.94451      0.17801974     0.14443787     43.382496      23.476148      25.827062      26303.671      0.488         -1756.9182    
     48900   300.32174      0.20132568     0.19352294     43.41165       23.293584      25.921023      26211.673      0.489         -1986.93      
     49000   291.5959       0.070544519    0.12376028     43.440805      23.184576      26.010413      26196.56       0.49          -696.22027    
     49100   295.58085      0.066463495    0.095473098    43.46996       23.202597      26.049202      26273.641      0.491         -655.94369    
     49200   301.48226      0.24120538     0.16348399     43.499115      23.327622      25.686465      26064.85       0.492         -2380.512     
     49300   302.47088      0.066802292    0.037718472    43.52827       23.447364      25.859824      26393.136      0.493         -659.28737    
     49400   292.98521      0.3133688      0.11401822     43.557425      23.365917      26.092516      26555.898      0.494         -3092.7096    
     49500   299.58482      0.61364593     0.26516943     43.58658       23.275084      26.18828       26567.521      0.495         -6056.2144    
     49600   294.72441      0.14067599     0.15675996     43.615735      23.168076      26.1494        26423.776      0.496         -1388.364     
     49700   293.56301      0.37768994     0.15582402     43.64489       23.0049        26.325873      26432.397      0.497         -3727.5099    
     49800   297.30454      0.045137058    0.14093948     43.674045      23.060213      26.480651      26669.531      0.498         -445.46813    
     49900   299.5981       0.071571084    0.10438374     43.703199      23.087548      26.142616      26377.892      0.499         -706.35168    
     50000   291.96962      0.28884756     0.13935604     43.732354      23.403404      25.515504      26114.76       0.5           -2850.7038    
     50100   307.30846      0.27213743     0.069322004    43.761509      23.388531      25.597915      26199.912      0.501         -2685.7876    
     50200   297.73511      0.36215988     0.29407524     43.790664      23.193205      25.756945      26159.935      0.502         -3574.2401    
     50300   300.79271      0.25094454     0.1778271      43.819819      23.158424      25.794665      26176.374      0.503         -2476.6301    
     50400   309.01388      0.17363094     0.066165827    43.848974      23.121788      25.691608      26047.865      0.504         -1713.6041    
     50500   295.82618      0.16441014     0.15557307     43.878129      23.074731      25.93185       26255.376      0.505         -1622.6019    
     50600   307.51004      0.40511312     0.26533535     43.907284      23.056374      25.685707      26002.739      0.506         -3998.1557    
     50700   304.57538      0.16209656     0.32747174     43.936439      23.056078      25.557073      25889.365      0.507         -1599.7686    
     50800   298.20129      0.16064829     0.12415643     43.965594      23.114561      25.406724      25819.465      0.508         -1585.4754    
     50900   299.9481       0.17225009     0.14728965     43.994748      23.098876      25.564857      25979.755      0.509         -1699.9763    
     51000   309.85951      0.40253283     0.1441336      44.023903      23.097844      25.479735      25909.253      0.51          -3972.6902    
     51100   289.89056      0.15670803     0.10317855     44.053058      23.159305      25.642101      26161.052      0.511         -1546.588     
     51200   295.40673      0.094824001    0.099217343    44.082213      23.145003      25.701771      26223.078      0.512         -935.84012    
     51300   304.57204      0.28205566     0.22507391     44.111368      23.186166      25.822868      26410.945      0.513         -2783.673     
     51400   289.80661      0.14337593     0.088615969    44.140523      23.044101      25.654307      26095.013      0.514         -1415.0104    
     51500   304.54535      0.0057146349   0.10295923     44.169678      22.836932      25.865691      26090.721      0.515         -56.399061    
     51600   302.96085      0.38096779    -0.021257526    44.198833      22.884694      25.885209      26182.287      0.516         -3759.8598    
     51700   309.99617      0.17639897     0.19648539     44.227988      23.092541      25.728568      26277.529      0.517         -1740.9225    
     51800   302.9615       0.061184427    0.16842474     44.257143      23.083198      25.871585      26430.318      0.518         -603.84335    
     51900   299.13308      0.071026945    0.18228202     44.286298      23.04809       25.86864       26404.499      0.519         -700.98145    
     52000   296.13408      0.02812421     0.19086171     44.315452      22.891322      25.932195      26306.638      0.52          -277.56438    
     52100   302.53863     -0.1611327      0.28379003     44.344607      23.016897      26.031273      26569.476      0.521          1590.2561    
     52200   306.13344     -0.00672161     0.12285259     44.373762      22.843431      25.97741       26331.974      0.522          66.337133    
     52300   300.1349       0.35940371     0.074953797    44.402917      22.835038      26.311281      26678.121      0.523         -3547.0389    
     52400   298.70963      0.2601985      0.11271436     44.432072      22.740514      26.235721      26508.787      0.524         -2567.9596    
     52500   308.13151      0.21958079     0.17763337     44.461227      22.733846      26.059772      26340.558      0.525         -2167.0939    
     52600   300.49016      0.10957846     0.17977146     44.490382      22.738954      26.371508      26679.125      0.526         -1081.4553    
[...]
     87400   298.29913      0.094859551    0.17500749     54.636288      20.280672      24.167961      26779.566      0.874         -936.19098    
     87500   296.15978     -0.0058199452   0.10035005     54.665443      20.354139      24.263853      26997.613      0.875          57.438393    
     87600   297.87861     -0.19545961     0.081674895    54.694598      20.19215       24.37741       26922.449      0.876          1929.0364    
     87700   299.46706      0.0068282164   0.14626679     54.723753      20.163211      24.160344      26658.683      0.877         -67.389257    
     87800   295.17112      0.036918584    0.074164645    54.752908      20.129704      24.387643      26879.081      0.878         -364.3581     
     87900   288.84458      0.078390714    0.089276209    54.782063      20.197298      24.688271      27316.329      0.879         -773.65619    
     88000   309.044       -0.11148772     0.069855192    54.811217      20.246455      24.400803      27078.373      0.88           1100.2982    
     88100   301.18207      0.20733715    -0.041150809    54.840372      20.254203      24.247498      26932.86       0.881         -2046.2585    
     88200   295.5111       0.25322766     0.30857971     54.869527      20.189497      24.258706      26873.507      0.882         -2499.1627    
     88300   297.87294      0.048396278    0.069670898    54.898682      20.21327       24.293378      26957.921      0.883         -477.63413    
     88400   292.37511      0.21813135     0.07900753     54.927837      20.253168      24.041738      26745.537      0.884         -2152.7891    
     88500   301.9753       0.35193319     0.1026835      54.956992      20.418195      24.272634      27236.87       0.885         -3473.3105    
     88600   303.96987      0.056250252    0.1397077      54.986147      20.176966      24.562579      27251.042      0.886         -555.14682    
     88700   298.87405      0.37747638     0.23633297     55.015302      20.248491      24.518111      27312.609      0.887         -3725.4022    
     88800   302.41218      0.080400792    0.22081151     55.044457      20.270795      24.23577       27042.148      0.888         -793.49412    
     88900   298.87279      0.087825026   -0.0054443599   55.073612      20.239703      24.167422      26938.786      0.889         -866.76562    
     89000   299.21528      0.54030223     0.20480872     55.102766      20.36011       24.262968      27220.586      0.89          -5332.3684    
     89100   301.39822      0.51871705     0.21509136     55.131921      20.426548      24.202613      27255.89       0.891         -5119.3393    
     89200   307.35917      0.18222455     0.22923394     55.161076      20.442715      24.209809      27300.001      0.892         -1798.4165    
     89300   297.1176      -0.070704222    0.054330789    55.190231      20.206775      24.301226      27101.13       0.893          697.79642    
     89400   299.30642      0.093282112    0.18858228     55.219386      20.291975      24.515732      27470.132      0.894         -920.62287    
     89500   303.59322     -0.1824391      0.12175461     55.248541      20.20759       24.460125      27308.259      0.895          1800.5339    
     89600   299.19404      0.29622706     0.016600776    55.277696      20.276156      24.413213      27362.799      0.896         -2923.5338    
     89700   306.89649     -0.16094301     0.13506848     55.306851      20.350554      24.098848      27123.858      0.897          1588.384     
     89800   302.81283     -0.087511276    0.012351594    55.336006      20.621458      23.98808       27373.016      0.898          863.66914    
     89900   297.92815      0.20971844     0.18005027     55.365161      20.746927      23.987159      27553.018      0.899         -2069.7601    
     90000   308.17169      0.23967623     0.15250577     55.394316      20.734422      24.029077      27599.056      0.9           -2365.4205    
     90100   298.99855      0.098022774    0.14492104     55.42347       20.525815      24.287939      27630.248      0.901         -967.40957    
     90200   294.59656      0.12831181     0.21245394     55.452625      20.379012      24.489544      27674.893      0.902         -1266.3391    
     90300   299.88909      0.051858719    0.11860931     55.48178       20.524253      24.093781      27436.121      0.903         -511.80577    
     90400   296.83653      0.16478938     0.015285154    55.510935      20.636038      23.939674      27423.513      0.904         -1626.3447    
     90500   306.27034      0.46200375     0.10811766     55.54009       20.717752      23.932469      27538.275      0.905         -4559.6225    
     90600   302.9589       0.22615794     0.18797586     55.569245      20.565182      23.762853      27155.99       0.906         -2232.0053    
     90700   300.28409      0.33454921     0.1411677      55.5984        20.66094       23.715001      27241.783      0.907         -3301.744     
     90800   305.10599      0.090810179    0.32937584     55.627555      20.675064      23.873388      27456.861      0.908         -896.22678    
     90900   302.95621      0.083522254    0.13414026     55.65671       20.597476      24.088423      27614.672      0.909         -824.30056    
     91000   300.1595      -0.0024029529   0.05574668     55.685865      20.58106       23.854521      27339.049      0.91           23.715301    
     91100   297.80151      0.11161936     0.09866285     55.715019      20.477645      23.871013      27234.734      0.911         -1101.5975    
     91200   301.18226      0.48300212     0.18206265     55.744174      20.373362      23.840435      27075.493      0.912         -4766.8603    
     91300   293.07873      0.33834297     0.34481453     55.773329      20.199159      23.920626      26948.363      0.913         -3339.1855    
     91400   300.17304      0.19639373     0.089641627    55.802484      20.321807      23.933539      27140.808      0.914         -1938.2554    
     91500   294.96073      0.04643826     0.15455946     55.831639      20.427779      23.832971      27181.893      0.915         -458.30999    
     91600   294.92379      0.06490414     0.10172606     55.860794      20.292343      23.713268      26880.09       0.916         -640.55406    
     91700   301.07211     -0.12295537     0.13383619     55.889949      20.120331      23.767599      26727.243      0.917          1213.4751    
     91800   295.28032      0.097961789    0.20930222     55.919104      20.351976      23.914205      27215.902      0.918         -966.80769    
     91900   294.65974      0.18292699     0.1209531      55.948259      20.551723      23.810544      27378.151      0.919         -1805.349     
     92000   303.29012      0.055202268    0.072629398    55.977414      20.47469       23.700525      27163.651      0.92          -544.80403    
     92100   295.78766      0.65448357     0.18579189     56.006568      20.249728      23.533753      26690.047      0.921         -6459.2506    
     92200   303.06658      0.43671558     0.11908808     56.035723      20.143392      23.650507      26695.499      0.922         -4310.0476    
     92300   301.2602       0.21674724     0.19567208     56.064878      20.175153      23.796217      26916.318      0.923         -2139.1289    
     92400   294.90586      0.31382864     0.14512496     56.094033      20.194294      23.883015      27054.188      0.924         -3097.2478    
     92500   300.07485      0.044106968    0.16627401     56.123188      20.108389      23.678332      26722.108      0.925         -435.30193    
     92600   299.15858      0.38037672     0.2132051      56.152343      19.879115      24.22524       27041.639      0.926         -3754.0263    
     92700   297.03261     -0.092893831    0.22394463     56.181498      19.707595      24.072275      26652.876      0.927          916.79083    
     92800   286.20905      0.44945986     0.19222373     56.210653      19.860106      23.794846      26563.364      0.928         -4435.824     
     92900   306.67815      0.019652638    0.15329398     56.239808      19.990194      23.867425      26832.825      0.929         -193.95646    
     93000   301.68902      0.046437616    0.20188571     56.268963      19.940249      23.94774       26869.774      0.93          -458.30363    
     93100   298.80999      0.19971235     0.20070882     56.298118      20.057032      24.042847      27148.536      0.931         -1971.0076    
     93200   306.67117     -0.17472687     0.11359013     56.327272      19.977153      24.056743      27070.055      0.932          1724.4202    
     93300   299.14741      0.1149109      0.10092973     56.356427      20.053099      23.843619      26946.174      0.933         -1134.0824    
     93400   307.4594      -0.19026606     0.12160285     56.385582      20.087172      23.621749      26754.628      0.934          1877.78      
     93500   297.48289      0.1080746      0.2134903      56.414737      19.925846      24.182178      27183.461      0.935         -1066.6133    
     93600   307.91192     -0.08974956     0.20214271     56.443892      19.802075      24.185669      27032.471      0.936          885.75929    
     93700   295.61298      0.18773358     0.03872752     56.473047      19.882307      24.078795      27036.019      0.937         -1852.7863    
     93800   302.16434      0.2736384      0.24116444     56.502202      19.650855      24.160427      26825.723      0.938         -2700.601     
     93900   309.60598     -0.013086408    0.099793463    56.531357      19.74081       24.299169      27117.259      0.939          129.15281    
     94000   298.40976     -0.14359104    -0.034309891    56.560512      19.581565      24.3471        26965.468      0.94           1417.1334    
     94100   299.67856      0.30507411     0.20928132     56.589667      19.832006      24.198987      27158.199      0.941         -3010.8474    
     94200   306.41846     -0.07137945     0.095608746    56.618821      19.741501      24.078413      26913.418      0.942          704.4604     
     94300   300.05625      0.28635596     0.19466293     56.647976      19.835931      23.972133      26936.655      0.943         -2826.1136    
     94400   299.19978     -0.10273995     0.22045097     56.677131      19.700856      24.097783      26907.295      0.944          1013.9645    
     94500   308.53396      0.023366176    0.14378888     56.706286      19.751642      24.185202      27088.449      0.945         -230.60623    
     94600   300.1072      -0.0005220712   0.10057401     56.735441      19.916544      24.043818      27168.887      0.946          5.1524421    
     94700   301.62926     -0.20823242     0.0079061506   56.764596      19.737943      24.260307      27181.645      0.947          2055.0942    
     94800   300.39794      0.11763259     0.14128639     56.793751      19.78489       24.142178      27127.555      0.948         -1160.9434    
     94900   290.87207      0.14945566     0.19570351     56.822906      19.792422      24.144117      27153.993      0.949         -1475.0126    
     95000   308.81123      0.068897061    0.23905516     56.852061      19.761784      24.049578      27019.657      0.95          -679.96112    
     95100   292.39137      0.18205104     0.14589676     56.881216      19.93036       24.118784      27342.575      0.951         -1796.7041    
     95200   297.67375     -0.1993328      0.12223371     56.91037       19.82461       23.997955      27075.115      0.952          1967.2618    
     95300   298.60107     -0.061017305    0.16708217     56.939525      19.745578      24.111243      27108.362      0.953          602.19398    
     95400   296.089        0.21809597     0.092674276    56.96868       19.862608      24.062819      27228.199      0.954         -2152.4399    
     95500   295.07832      0.10298993     0.18716738     56.997835      19.810404      24.027448      27130.597      0.955         -1016.4315    
     95600   300.97847      0.10721762     0.13692847     57.02699       19.91828       24.081155      27353.292      0.956         -1058.1556    
     95700   302.03447     -0.11139443     0.097279528    57.056145      19.812521      24.015998      27148.311      0.957          1099.3776    
     95800   296.60345      0.29279983     0.070808176    57.0853        19.688899      24.060192      27042.372      0.958         -2889.7097    
     95900   297.28243      0.11741948     0.13045998     57.114455      19.560338      24.168704      27000.745      0.959         -1158.8402    
     96000   303.23817     -0.029434174    0.25587762     57.14361       19.664876      24.152795      27141.027      0.96           290.49271    
     96100   306.77082     -0.041601392    0.07899495     57.172765      19.668699      24.073538      27071.029      0.961          410.57382    
     96200   295.39881     -0.046556208    0.17166395     57.20192       19.41914       24.2504        26937.637      0.962          459.47404    
     96300   300.26085      0.16967614     0.09127102     57.231074      19.441994      24.59931       27371.314      0.963         -1674.5733    
     96400   306.75265     -0.11744637     0.12911459     57.260229      19.434884      24.528563      27296.511      0.964          1159.1056    
     96500   290.51024     -0.14150754     0.049776526    57.289384      19.445321      24.631655      27439.922      0.965          1396.5708    
     96600   298.44247      0.11772222     0.14739398     57.318539      19.455427      24.57075       27400.235      0.966         -1161.8279    
     96700   303.06994     -0.094150165    0.11655444     57.347694      19.464669      24.536802      27389.3        0.967          929.18988    
     96800   296.73238      0.17943687     0.1099551      57.376849      19.316195      24.571347      27232.483      0.968         -1770.9042    
     96900   294.09503     -0.034262644    0.081102921    57.406004      19.608779      24.365689      27427.522      0.969          338.146      
     97000   297.29337      0.065384971    0.1766819      57.435159      19.449854      24.473949      27339.982      0.97          -645.29949    
     97100   308.47812     -0.12200099     0.23035462     57.464314      19.484921      24.406868      27328.067      0.971          1204.0562    
     97200   296.60748      0.034650502    0.099418033    57.493469      19.465606      24.551196      27476.353      0.972         -341.97387    
     97300   295.78638      0.23034849     0.21136928     57.522623      19.382273      24.551045      27372.432      0.973         -2273.3629    
     97400   301.36097      0.10127684     0.27062005     57.551778      19.431485      24.364861      27247.626      0.974         -999.52466    
     97500   298.25016     -0.098776431    0.14315997     57.580933      19.526622      24.598733      27657.859      0.975          974.84758    
     97600   291.00535      0.22147862     0.16986885     57.610088      19.389295      24.859812      27768.882      0.976         -2185.824     
     97700   302.67615     -0.075744413   -0.083793997    57.639243      19.230264      24.830624      27522.707      0.977          747.53924    
     97800   308.12225      0.1189627      0.1504623      57.668398      19.145788      24.879363      27469.477      0.978         -1174.0706    
     97900   291.91567      0.36981759     0.15526222     57.697553      19.184059      24.621374      27252.74       0.979         -3649.8158    
     98000   299.37755     -0.1316266      0.000528136    57.726708      19.133362      24.620518      27193.51       0.98           1299.0535    
     98100   305.11371     -0.070516546   -0.022332094    57.755863      19.151039      24.512791      27113.224      0.981          695.9442     
     98200   296.7178       0.1430071      0.12119885     57.785018      18.97839       24.577261      26953.061      0.982         -1411.3704    
     98300   296.8341       0.27126894     0.12163955     57.814172      18.973914      24.682955      27076.242      0.983         -2677.2163    
     98400   298.46129      0.22306912     0.13103645     57.843327      19.179446      24.604025      27295.779      0.984         -2201.5211    
     98500   296.90382      0.066142323    0.15740145     57.872482      19.175665      24.448533      27131.597      0.985         -652.77397    
     98600   292.07492     -0.036543407    0.032222091    57.901637      19.220704      24.360901      27111.496      0.986          360.65539    
     98700   307.25645     -0.058160617    0.15839783     57.930792      19.177185      24.262652      26954.581      0.987          574.00066    
     98800   297.58187      0.25012697     0.061319298    57.959947      19.115739      24.319764      26945.015      0.988         -2468.5613    
     98900   301.65111      0.067092077    0.14562234     57.989102      19.111803      24.183052      26801.504      0.989         -662.14731    
     99000   303.37638      0.20123867     0.13114461     58.018257      19.031024      24.07005       26576.869      0.99          -1986.0713    
     99100   299.13036      0.35754972     0.24266214     58.047412      19.100905      24.24746       26884.568      0.991         -3528.7414    
     99200   304.83466      0.082202436    0.25732679     58.076567      18.991829      24.311908      26815.554      0.992         -811.27497    
     99300   295.54638      0.058405889    0.16811851     58.105721      19.123476      24.524914      27251.677      0.993         -576.42131    
     99400   303.43556     -0.050165607    0.22928823     58.134876      19.027603      24.468403      27066.148      0.994          495.09605    
     99500   300.82016      0.041896607    0.20669487     58.164031      19.072882      24.518741      27200.006      0.995         -413.48736    
     99600   302.80974      0.0054754292   0.053080476    58.193186      18.960923      24.104003      26596.273      0.996         -54.038285    
     99700   306.97788      0.010221603    0.070348713    58.222341      19.012211      24.016705      26584.942      0.997         -100.87938    
     99800   295.0403       0.43064102     0.18338894     58.251496      19.179142      24.170896      27004.056      0.998         -4250.0965    
     99900   303.04254      0.18869697     0.29244461     58.280651      19.13559       24.222459      27013.725      0.999         -1862.2943    
    100000   307.35679      0.050864698    0.03183236     58.309806      19.438084      24.157807      27381.206      1             -501.99554    
Loop time of 732.449 on 4 procs for 100000 steps with 2808 atoms

Performance: 11.796 ns/day, 2.035 hours/ns, 136.528 timesteps/s
246.8% CPU use with 1 MPI tasks x 4 OpenMP threads

MPI task timing breakdown:
Section |  min time  |  avg time  |  max time  |%varavg| %total
---------------------------------------------------------------
Pair    | 512.94     | 512.94     | 512.94     |   0.0 | 70.03
Bond    | 47.454     | 47.454     | 47.454     |   0.0 |  6.48
Neigh   | 82.625     | 82.625     | 82.625     |   0.0 | 11.28
Comm    | 11.278     | 11.278     | 11.278     |   0.0 |  1.54
Output  | 0.49685    | 0.49685    | 0.49685    |   0.0 |  0.07
Modify  | 76.413     | 76.413     | 76.413     |   0.0 | 10.43
Other   |            | 1.246      |            |       |  0.17

Nlocal:           2808 ave        2808 max        2808 min
Histogram: 1 0 0 0 0 0 0 0 0 0
Nghost:          14507 ave       14507 max       14507 min
Histogram: 1 0 0 0 0 0 0 0 0 0
Neighs:    1.03591e+06 ave 1.03591e+06 max 1.03591e+06 min
Histogram: 1 0 0 0 0 0 0 0 0 0

Total # of neighbors = 1035907
Ave neighs/atom = 368.91275
Ave special neighs/atom = 11.65812
Neighbor list builds = 5068
Dangerous builds = 0
unfix 1
unfix 2
unfix def1

print "All done"
All done
Total wall time: 0:12:12
