units			real
dimension		3
processors		* * *
boundary		p p p
atom_style		full
pair_style		lj/cut 10.0
bond_style		harmonic
angle_style 	harmonic
read_data		after_cross_linking_correct.data
Reading data file ...
  orthogonal box = (30.222448 27.307948 30.19145) to (59.884552 56.970052 59.853554)
  1 by 1 by 1 MPI processor grid
  reading atoms ...
  2988 atoms
  reading velocities ...
  2988 velocities
  scanning bonds ...
  4 = max bonds/atom
  scanning angles ...
  6 = max angles/atom
  reading bonds ...
  3044 bonds
  reading angles ...
  5800 angles
Finding 1-2 1-3 1-4 neighbors ...
  special bond factors lj:    0        0        0       
  special bond factors coul:  0        0        0       
     4 = max # of 1-2 neighbors
     7 = max # of 1-3 neighbors
    16 = max # of 1-4 neighbors
    20 = max # of special neighbors
  special bonds CPU = 0.005 seconds
  read_data CPU = 0.094 seconds
variable simname index ssc_linked
variable tmp equal "lx"
variable L0 equal ${tmp}
variable L0 equal 29.6621039368179
variable strain equal "(lx - v_L0)/v_L0"
variable p1 equal "v_strain"
variable p2 equal "-pxx/10000*1.01325"
variable p3 equal "-pyy/10000*1.01325"
variable p4 equal "-pzz/10000*1.01325"
variable p5 equal "lx"
variable p6 equal "ly"
variable p7 equal "lz"
variable p8 equal "temp"
fix		1 all npt temp 300 300 50 y 1 1 100 z 1 1 100
fix		2 all deform 1 x erate 1e-5 units box remap x
fix        3 all ave/time 1 100 100 v_p2 v_p3
variable avg_stress equal f_3[1]
fix def1 all print 100 "${p1} ${p2} ${avg_stress}" file ${simname}.txt screen no
fix def1 all print 100 "${p1} ${p2} ${avg_stress}" file ssc_linked.txt screen no
thermo_style	custom step temp v_p2 v_avg_stress lx ly lz vol v_strain pxx
thermo          100
timestep	1
run		100000
Generated 153 of 153 mixed pair_coeff terms from geometric mixing rule
Last active /omp style is angle_style harmonic/omp
Neighbor list info ...
  update every 1 steps, delay 10 steps, check yes
  max neighbors/atom: 2000, page size: 100000
  master list distance cutoff = 12
  ghost atom cutoff = 12
  binsize = 6, bins = 5 5 5
  1 neighbor lists, perpetual/occasional/extra = 1 0 0
  (1) pair lj/cut/omp, perpetual
      attributes: half, newton on, omp
      pair build: half/bin/newton/omp
      stencil: half/bin/3d
      bin: standard
WARNING: Inconsistent image flags (src/domain.cpp:819)
Per MPI rank memory allocation (min/avg/max) = 27.41 | 27.41 | 27.41 Mbytes
   Step          Temp           v_p2       v_avg_stress        Lx             Ly             Lz           Volume        v_strain         Pxx      
         0   296.64116     -0.28038351     0              29.662104      29.662104      29.662104      26097.918      5.9886407e-16  2767.1701    
       100   304.17026     -0.21527043     0.069636908    29.691766      29.599472      29.485774      25913.885      0.001          2124.554     
       200   300.72577     -0.041595085   -0.024796255    29.721428      29.648387      29.56556       26052.947      0.002          410.51158    
       300   296.78447     -0.044067559   -0.0067411854   29.75109       29.692165      29.524493      26081.177      0.003          434.91299    
       400   299.4154       0.37106285     0.027961221    29.780752      29.82535       29.281247      26008.229      0.004         -3662.1056    
       500   296.07999      0.25106057     0.040062325    29.810414      29.809842      29.23695       25981.233      0.005         -2477.7752    
       600   297.39801      0.24092257     0.065243179    29.840077      29.871381      29.429001      26231.961      0.006         -2377.7209    
       700   303.7149       0.13619546    -0.006998249    29.869739      29.873076      29.417352      26249.132      0.007         -1344.1447    
       800   299.75749      0.52138488     0.09258761     29.899401      29.906951      29.42417       26311.091      0.008         -5145.6687    
       900   293.10636      0.14528272     0.10383697     29.929063      29.860253      29.31484       26198.361      0.009         -1433.829     
      1000   303.96565      0.31496568     0.12859253     29.958725      29.908526      29.21519       26177.433      0.01          -3108.4696    
      1100   305.79804     -0.16795792    -0.0038037916   29.988387      29.798485      29.315626      26196.693      0.011          1657.6158    
      1200   297.44661     -0.051903561    0.061016315    30.018049      29.748513      29.341805      26202.007      0.012          512.24832    
      1300   308.31688     -0.037263546    0.10269648     30.047711      29.789745      29.347353      26269.217      0.013          367.76261    
      1400   299.73866     -0.11986008     0.12379988     30.077373      29.473063      29.308203      25980.911      0.014          1182.927     
      1500   297.62073      0.24902786     0.054984297    30.107035      29.522725      29.394444      26127.008      0.015         -2457.7139    
      1600   302.90302      0.049199514    0.07565231     30.136698      29.667055      29.368034      26256.992      0.016         -485.56145    
      1700   294.71318      0.13334425     0.14323592     30.16636       29.608683      29.571409      26412.774      0.017         -1316.0054    
      1800   303.40989      0.027012717    0.14036039     30.196022      29.609692      29.326815      26220.956      0.018         -266.59479    
      1900   303.90427      0.31080576     0.071637837    30.225684      29.567542      29.185386      26082.955      0.019         -3067.4143    
      2000   297.9937       0.06836485     0.15305353     30.255346      29.585382      29.184479      26123.493      0.02          -674.70861    
      2100   299.85814     -0.14716839     0.079542583    30.285008      29.344886      29.393876      26122.635      0.021          1452.4391    
      2200   306.13017     -0.13955263     0.097926845    30.31467       29.342917      29.450584      26196.909      0.022          1377.2774    
      2300   293.77771      0.15643853     0.098156157    30.344332      29.464401      29.47018       26348.627      0.023         -1543.9283    
      2400   310.43062     -0.041584001    0.14867964     30.373994      29.542914      29.279847      26273.87       0.024          410.40218    
      2500   296.98682     -0.12392213     0.14328127     30.403657      29.554246      29.388904      26407.61       0.025          1223.0163    
      2600   293.82619     -0.06050036     0.16123022     30.433319      29.592931      29.536522      26600.92       0.026          597.09213    
      2700   301.88896      0.046448172    0.15770547     30.462981      29.437496      29.552964      26501.735      0.027         -458.40782    
      2800   298.00066     -0.045986978    0.055122341    30.492643      29.500152      29.315801      26370.666      0.028          453.85619    
      2900   292.89341      0.12266944     0.10448453     30.522305      29.515019      29.25423       26354.154      0.029         -1210.6533    
      3000   304.13109      0.13131373     0.13893159     30.551967      29.683926      29.419064      26680.218      0.03          -1295.9658    
      3100   300.47493     -0.0074561666   0.20687217     30.581629      29.587305      29.374642      26578.998      0.031          73.586643    
      3200   295.07605      0.35602963     0.085248898    30.611291      29.415478      29.343097      26421.868      0.032         -3513.7393    
      3300   300.78581      0.12390493     0.23036641     30.640953      29.70087       29.043821      26431.706      0.033         -1222.8466    
      3400   302.36815      0.43598496     0.099707861    30.670615      29.893687      29.148568      26725.091      0.034         -4302.837     
      3500   301.13245      0.48896895     0.29522424     30.700278      29.704708      29.177186      26607.924      0.035         -4825.7483    
      3600   293.91609     -0.025013054    0.14714507     30.72994       29.593785      29.268155      26616.906      0.036          246.85965    
      3700   299.44115     -0.033845764    0.16559257     30.759602      29.44051       29.382335      26608.007      0.037          334.03172    
      3800   305.27077     -0.020754526    0.25710617     30.789264      29.619165      29.493063      26896.266      0.038          204.83124    
      3900   307.09848      0.095965368    0.1596588      30.818926      29.629272      29.342652      26794.018      0.039         -947.10455    
      4000   292.73029     -0.20666579     0.16727692     30.848588      29.575493      29.17206       26615.485      0.04           2039.6328    
      4100   300.88452     -0.30540776     0.10771634     30.87825       29.535223      29.050276      26493.736      0.041          3014.1402    
      4200   301.31768      0.084609173    0.088272643    30.907912      29.722481      28.897986      26547.419      0.042         -835.02762    
      4300   306.87565     -0.025144174    0.12418097     30.937574      29.576573      29.075537      26604.914      0.043          248.1537     
      4400   295.74589      0.15073132     0.15111592     30.967237      29.8696        28.726866      26571.747      0.044         -1487.6024    
      4500   299.82167      0.4851819      0.15704375     30.996899      29.99541       28.628211      26617.5        0.045         -4788.3731    
      4600   301.09701      0.298477       0.20260738     31.026561      30.073625      28.729354      26806.818      0.046         -2945.7389    
      4700   305.00872      0.17233071     0.22215916     31.056223      30.039842      28.895569      26957.371      0.047         -1700.7719    
      4800   301.50046      0.34316572     0.21316578     31.085885      29.97512       28.937369      26963.93       0.048         -3386.7823    
      4900   299.13227      0.038399377    0.19181584     31.115547      29.709256      28.952241      26764.023      0.049         -378.97238    
      5000   294.9372       0.093229705    0.19661832     31.145209      29.697196      28.74307       26585.195      0.05          -920.10565    
      5100   297.85553      0.24052367     0.12401449     31.174871      29.792904      28.942234      26881.255      0.051         -2373.784     
      5200   299.20913      0.18052755     0.20768697     31.204533      29.839484      28.730156      26751.429      0.052         -1781.6684    
      5300   304.28736      0.12131925     0.20702805     31.234195      29.607156      28.721211      26560.103      0.053         -1197.3279    
      5400   307.5391       0.071652266    0.28208511     31.263858      29.805991      28.650055      26697.562      0.054         -707.15288    
      5500   294.59412      0.2216305      0.13227771     31.29352       29.917053      28.593743      26769.745      0.055         -2187.323     
      5600   300.65606      0.41906359     0.20488674     31.323182      29.891182      28.63795       26813.338      0.056         -4135.8361    
      5700   304.08732      0.30661477     0.15145268     31.352844      29.561328      28.849779      26738.89       0.057         -3026.0525    
      5800   291.81748      0.054621051    0.19484445     31.382506      29.558639      28.898061      26806.54       0.058         -539.06786    
      5900   301.90811      0.023677094    0.13220906     31.412168      29.486192      28.565684      26458.257      0.059         -233.67475    
      6000   301.2457       0.27482556     0.15868123     31.44183       29.753383      28.532287      26691.977      0.06          -2712.3173    
      6100   296.98293      0.16437028     0.30080151     31.471492      29.578707      28.580086      26604.803      0.061         -1622.2085    
      6200   298.92256      0.24357901     0.20432147     31.501154      29.667762      28.635327      26761.682      0.062         -2403.938     
      6300   302.32747      0.37026021     0.17938624     31.530816      29.68085       28.702685      26861.736      0.063         -3654.1842    
      6400   294.26021      0.27882218     0.18675793     31.560479      29.429344      28.545359      26513.049      0.064         -2751.761     
      6500   305.13924      0.052258066    0.20091366     31.590141      29.484089      28.543809      26585.889      0.065         -515.74701    
      6600   298.94737      0.43201758     0.18059973     31.619803      29.428955      28.515694      26534.93       0.066         -4263.682     
      6700   294.5972       0.06027507     0.25425699     31.649465      29.33077       28.536322      26490.358      0.067         -594.86869    
      6800   301.16571      0.15442773     0.2983249      31.679127      29.360875      28.533487      26539.764      0.068         -1524.0832    
      6900   297.9091       0.43829262     0.31857643     31.708789      29.344333      28.595828      26607.653      0.069         -4325.6119    
      7000   291.49849      0.10644797     0.24543426     31.738451      29.338899      28.529088      26565.465      0.07          -1050.5598    
      7100   305.48101      0.23123577     0.2291696      31.768113      29.4319        28.452882      26603.329      0.071         -2282.1196    
      7200   298.61242      0.37762232     0.31338176     31.797775      29.279876      28.49102       26526.134      0.072         -3726.8425    
      7300   297.41503      0.59139566     0.33624435     31.827438      29.571309      28.498777      26822.45       0.073         -5836.6214    
      7400   294.6964       0.11816577     0.19246164     31.8571        29.799438      28.492147      27048.269      0.074         -1166.2055    
      7500   299.00994      0.34971719     0.19915495     31.886762      29.646816      28.465531      26909.632      0.075         -3451.4403    
      7600   295.34595      0.063103297    0.17436325     31.916424      29.523731      28.632336      26980.018      0.076         -622.78112    
      7700   295.38182      0.41182057     0.23831952     31.946086      29.467639      28.526227      26853.897      0.077         -4064.353     
      7800   301.76068      0.56145453     0.30101502     31.975748      29.570407      28.445119      26895.881      0.078         -5541.1254    
      7900   297.99198      0.4393212      0.27656452     32.00541       29.474586      28.645332      27022.466      0.079         -4335.7632    
      8000   297.60643      0.22664403     0.27361088     32.035072      29.737727      28.341888      26999.907      0.08          -2236.8026    
      8100   300.70955      0.22436842     0.29883771     32.064734      29.618539      28.406283      26977.747      0.081         -2214.3442    
      8200   304.50517      0.092453854    0.18657491     32.094396      29.51873       28.333284      26842.552      0.082         -912.44859    
      8300   292.35388      0.23213824     0.29571758     32.124059      29.450068      28.600145      27057.331      0.083         -2291.0263    
      8400   295.28254      0.16939335     0.26418001     32.153721      29.310162      28.687344      27035.835      0.084         -1671.7824    
      8500   297.79243      0.23872104     0.3155354      32.183383      29.382156      28.49866       26948.823      0.085         -2355.9935    
      8600   294.45435      0.55468567     0.2686953      32.213045      29.553904      28.604336      27231.935      0.086         -5474.3219    
      8700   297.35192      0.38819799     0.27859735     32.242707      29.423769      28.554102      27089.332      0.087         -3831.2163    
      8800   306.79035      0.17939413     0.23359718     32.272369      29.341465      28.481198      26969.376      0.088         -1770.4824    
      8900   295.94409     -0.085897287    0.22440569     32.302031      29.124749      28.628877      26933.719      0.089          847.74031    
      9000   305.0948       0.30469489     0.31019885     32.331693      29.154547      28.614617      26972.592      0.09          -3007.1047    
      9100   297.58471      0.34685476     0.28309531     32.361355      29.442651      28.484165      27139.829      0.091         -3423.1903    
      9200   295.62815      0.32914083     0.35960311     32.391017      29.563794      28.482112      27274.51       0.092         -3248.3675    
      9300   312.439        0.18058026     0.33518695     32.42068       29.37667       28.584831      27224.524      0.093         -1782.1886    
      9400   302.63011      0.61223305     0.42144729     32.450342      29.388362      28.510829      27189.705      0.094         -6042.2704    
      9500   298.4134       0.27043462     0.28825916     32.480004      29.545015      28.452869      27304.004      0.095         -2668.9822    
      9600   301.82861      0.45220267     0.29177479     32.509666      29.470077      28.357829      27168.569      0.096         -4462.8933    
      9700   305.0183       0.38511601     0.25221885     32.539328      29.157242      28.548218      27085.323      0.097         -3800.7995    
      9800   299.2887       0.3892442      0.37634345     32.56899       29.193074      28.408859      27010.829      0.098         -3841.5415    
      9900   294.06242      0.74326116     0.34520161     32.598652      29.138405      28.482195      27054.46       0.099         -7335.4173    
     10000   290.49988      0.074587151    0.31403994     32.628314      29.092094      28.397551      26955.694      0.1           -736.11794    
     10100   303.46745      0.12814621     0.23679689     32.657976      29.001358      28.514172      27006.504      0.101         -1264.7048    
     10200   298.58979      0.51407006     0.3629473      32.687639      29.215642      28.307753      27033.63       0.102         -5073.477     
     10300   296.47958      0.46116524     0.316578       32.717301      29.147945      28.218102      26909.969      0.103         -4551.3471    
     10400   302.26233      0.081314672    0.26591985     32.746963      29.35279       27.993832      26908.083      0.104         -802.51341    
     10500   296.07055      0.25876389     0.39041861     32.776625      29.381033      28.107887      27068.208      0.105         -2553.801     
     10600   311.61292      0.28086058     0.24874214     32.806287      29.376871      28.181188      27159.509      0.106         -2771.8784    
     10700   312.4104       0.42053647     0.34982419     32.835949      29.216588      28.166307      27021.47       0.107         -4150.3723    
     10800   304.42366      0.21680282     0.45620845     32.865611      29.198027      28.234201      27093.85       0.108         -2139.6775    
     10900   301.19237      0.25149555     0.33765923     32.895273      29.269597      28.148122      27101.896      0.109         -2482.0681    
     11000   304.55886      0.18804666     0.34740841     32.924935      29.255824      28.113979      27080.681      0.11          -1855.8763    
     11100   302.40603      0.33960583     0.31624349     32.954597      28.995603      28.089658      26840.747      0.111         -3351.6489    
     11200   293.50991      0.29715254     0.26915508     32.98426       29.169124      28.077403      27013.886      0.112         -2932.6676    
     11300   300.08899      0.27907945     0.30629564     33.013922      29.354473      28.081919      27214.364      0.113         -2754.3       
     11400   299.24706      0.031428341    0.2656062      33.043584      29.224732      27.951465      26992.447      0.114         -310.17361    
     11500   294.15436      0.4515949      0.37703418     33.073246      29.360854      27.821599      27016.407      0.115         -4456.8951    
     11600   303.29134      0.49140315     0.43395088     33.102908      29.344376      27.908396      27109.774      0.116         -4849.772     
     11700   297.36915      0.28963939     0.24970125     33.13257       29.492211      27.800353      27165.192      0.117         -2858.5186    
     11800   295.30134      0.25830904     0.34595654     33.162232      29.263782      27.86776       27044.332      0.118         -2549.312     
     11900   302.67428      0.33279794     0.4511843      33.191894      29.119897      27.865651      26933.393      0.119         -3284.4603    
     12000   297.84564      0.55197781     0.30464754     33.221556      29.163682      28.026351      27153.692      0.12          -5447.5974    
     12100   294.67365      0.37924131     0.41495328     33.251219      29.166215      27.946714      27103.064      0.121         -3742.8207    
     12200   305.57018      0.60206434     0.37923224     33.280881      29.092107      27.987673      27097.971      0.122         -5941.913     
     12300   293.29432      0.46283141     0.45081537     33.310543      29.147904      27.985674      27172.201      0.123         -4567.7909    
     12400   301.34317      0.39424066     0.54515159     33.340205      28.925602      28.09976       27099          0.124         -3890.8528    
     12500   312.33793      0.38918025     0.32010232     33.369867      29.256809      27.765063      27106.914      0.125         -3840.9105    
     12600   294.00702      0.26522509     0.42982788     33.399529      29.153343      27.746778      27017.258      0.126         -2617.5681    
     12700   296.76028      0.54944375     0.35247171     33.429191      29.252044      27.851455      27235.163      0.127         -5422.5882    
     12800   305.00317      0.75572341     0.49079256     33.458853      29.08632       27.804496      27059.194      0.128         -7458.4102    
     12900   299.53205      0.67381918     0.39009447     33.488515      29.230789      27.786653      27200.236      0.129         -6650.0782    
     13000   300.98954      0.55760387     0.41485415     33.518177      29.152135      27.870185      27232.695      0.13          -5503.1223    
     13100   314.75017      0.60233086     0.4704718      33.54784       29.083595      27.939201      27260.048      0.131         -5944.5434    
     13200   296.8684       0.36766984     0.39803795     33.577502      29.159292      27.783775      27202.988      0.132         -3628.6192    
     13300   304.68989      0.11263649     0.36393694     33.607164      28.969149      27.964687      27225.606      0.133         -1111.6357    
     13400   292.96458      0.18529714     0.41032794     33.636826      28.994481      28.230542      27532.748      0.134         -1828.7406    
     13500   305.90221      0.57821109     0.39085066     33.666488      29.174973      28.035644      27537.139      0.135         -5706.4998    
     13600   300.30847      0.46838773     0.54113814     33.69615       29.192266      27.950484      27493.969      0.136         -4622.6275    
     13700   291.38092      0.49165244     0.38344206     33.725812      29.178632      28.02826       27581.856      0.137         -4852.2323    
     13800   298.29229      0.71638148     0.46050468     33.755474      28.936746      28.219897      27564.45       0.138         -7070.1355    
     13900   299.21685      0.37290093     0.36250489     33.785136      29.014251      28.078641      27524.1        0.139         -3680.2461    
     14000   307.53818      0.51037969     0.352176       33.814798      29.086893      27.946806      27487.568      0.14          -5037.0559    
     14100   303.14014      0.61076978     0.54431214     33.844461      29.184747      27.920813      27578.56       0.141         -6027.8291    
     14200   299.88802      0.40119285     0.40846152     33.874123      29.131956      27.8138        27447.199      0.142         -3959.4656    
     14300   309.50052      0.32451294     0.42841803     33.903785      29.041862      27.739308      27312.928      0.143         -3202.6938    
     14400   289.63684      0.18290536     0.4595445      33.933447      28.91028       27.703984      27178.314      0.144         -1805.1356    
     14500   299.63407      0.56987612     0.58180822     33.963109      28.944868      27.75349       27283.282      0.145         -5624.24      
     14600   295.88414      0.26983065     0.50403777     33.992771      28.990595      27.753576      27350.335      0.146         -2663.0215    
     14700   302.83312      0.097251602    0.42944346     34.022433      29.006494      27.771118      27406.525      0.147         -959.79869    
     14800   305.89119      0.041525664    0.45246707     34.052095      29.249758      27.723278      27612.815      0.148         -409.82644    
     14900   299.15513      0.057289513    0.3482463      34.081757      29.228239      27.587788      27481.568      0.149         -565.40354    
     15000   297.69947      0.47544482     0.34933829     34.11142       29.050015      27.798031      27546.104      0.15          -4692.2756    
     15100   298.22286      0.6709371      0.42916989     34.141082      28.944809      27.770527      27443.031      0.151         -6621.6343    
     15200   300.22647      0.56335264     0.43657803     34.170744      29.002763      27.608927      27361.717      0.152         -5559.8583    
     15300   301.16762      0.37686417     0.52426154     34.200406      28.888646      27.749911      27417.007      0.153         -3719.3601    
     15400   301.32318      0.59711917     0.53978274     34.230068      29.002992      27.789031      27588.238      0.154         -5893.108     
     15500   295.71378      0.54033107     0.41937287     34.25973       29.164401      27.682392      27659.263      0.155         -5332.6531    
     15600   296.84965      0.72049991     0.52033735     34.289392      29.309574      27.348114      27485.059      0.156         -7110.7812    
     15700   301.42425      0.3597821      0.44021069     34.319054      29.100383      27.440714      27404.975      0.157         -3550.7732    
     15800   299.03971      0.32991623     0.31889598     34.348716      29.036467      27.5899        27517.211      0.158         -3256.02      
     15900   297.82824      0.45128228     0.56267218     34.378378      29.181173      27.605689      27694.066      0.159         -4453.8099    
     16000   290.00099      0.32996117     0.4923197      34.408041      29.152465      27.608125      27693.136      0.16          -3256.4636    
     16100   295.67339      0.36969974     0.36821485     34.437703      29.089187      27.620676      27669.421      0.161         -3648.6528    
     16200   304.33477      0.48679953     0.4159709      34.467365      29.036403      27.844561      27867.068      0.162         -4804.3378    
     16300   302.83377      0.4151691      0.44840791     34.497027      29.311705      27.518061      27825.345      0.163         -4097.4004    
     16400   293.70331      0.42616886     0.37187076     34.526689      29.509447      27.439987      27957.601      0.164         -4205.9596    
     16500   300.69454      0.42493214     0.42758728     34.556351      29.470213      27.327522      27829.885      0.165         -4193.7541    
     16600   300.54218      0.44913712     0.4019368      34.586013      29.603303      27.255106      27905.419      0.166         -4432.6388    
     16700   300.54797      0.22253609     0.38405219     34.615675      29.583332      27.15014       27803.02       0.167         -2196.2605    
     16800   294.12163      0.57705787     0.40401243     34.645337      29.404809      27.373174      27886.135      0.168         -5695.1184    
     16900   306.03372      0.404323       0.37787478     34.675         29.22692       27.593014      27963.959      0.169         -3990.3578    
     17000   296.23256      0.58157881     0.43838955     34.704662      29.139691      27.678318      27990.615      0.17          -5739.7366    
     17100   301.48104      0.44480624     0.53860248     34.734324      29.306904      27.599272      28094.83       0.171         -4389.8963    
     17200   306.37599      0.38192701     0.44427784     34.763986      29.149557      27.766171      28136.983      0.172         -3769.3265    
     17300   296.58778      0.20161436     0.5478001      34.793648      29.18841       27.588162      28017.744      0.173         -1989.779     
     17400   306.52035      0.53100188     0.49262137     34.82331       29.183429      27.627412      28076.733      0.174         -5240.5811    
     17500   303.74414      0.3064177      0.51182478     34.852972      29.33763       27.515172      28134.362      0.175         -3024.1076    
     17600   296.37246      0.35299882     0.41356372     34.882634      29.166451      27.438621      27916.125      0.176         -3483.8275    
     17700   300.95976      0.67090674     0.59324453     34.912296      28.990805      27.596143      27931.039      0.177         -6621.3347    
     17800   293.97498      0.4570965      0.51880698     34.941958      28.786639      27.576153      27737.791      0.178         -4511.1917    
     17900   301.29124      0.52032719     0.43096213     34.971621      28.82323       27.734085      27955.82       0.179         -5135.2301    
     18000   295.07447      0.2592211      0.46789838     35.001283      28.709142      27.910625      28046.182      0.18          -2558.3133    
     18100   304.05815      0.22726076     0.39851914     35.030945      28.620962      27.769943      27842.683      0.181         -2242.8893    
     18200   303.47473      0.44294245     0.41495105     35.060607      28.497566      27.946416      27922.437      0.182         -4371.5021    
     18300   303.59197      0.58617024     0.52297632     35.090269      28.456262      27.745598      27705.031      0.183         -5785.0505    
     18400   301.8995       0.22567389     0.41806255     35.119931      28.720795      27.471121      27709.36       0.184         -2227.2281    
     18500   299.18552      0.39563808     0.54589141     35.149593      28.808867      27.445857      27792.222      0.185         -3904.6443    
     18600   293.51838      0.085326523    0.42378652     35.179255      28.788351      27.259257      27606.888      0.186         -842.10731    
     18700   299.1674       0.36688858     0.52012376     35.208917      28.589081      27.436777      27617.601      0.187         -3620.9088    
     18800   301.11719      0.34202989     0.39095926     35.238579      28.856954      27.225535      27685.05       0.188         -3375.5726    
     18900   304.19636      0.49501183     0.56227511     35.268242      28.675436      27.465817      27777.065      0.189         -4885.3869    
     19000   301.10688      0.59093247     0.51809374     35.297904      28.643479      27.480439      27784.229      0.19          -5832.05      
     19100   308.03319      0.59515816     0.43914855     35.327566      28.655629      27.5242        27863.672      0.191         -5873.7543    
     19200   305.58512      0.70474948     0.41401167     35.357228      28.50408       27.567206      27782.927      0.192         -6955.3366    
     19300   295.44313      0.58765802     0.49537512     35.38689       28.690401      27.295122      27711.756      0.193         -5799.7338    
     19400   297.32798      0.47179898     0.52229883     35.416552      28.747869      27.291773      27787.129      0.194         -4656.2939    
     19500   299.52675      0.41350576     0.49833591     35.446214      28.683368      27.306513      27762.991      0.195         -4080.9845    
     19600   300.37553      0.31263809     0.65680842     35.475876      28.764064      27.275622      27832.873      0.196         -3085.498     
     19700   303.08297      0.23746167     0.42065439     35.505538      28.750326      27.206788      27772.575      0.197         -2343.5645    
     19800   296.15468      0.59851523     0.38891372     35.535201      28.728139      27.090329      27655.438      0.198         -5906.886     
     19900   304.79196      0.50521482     0.51306984     35.564863      28.5445        27.161898      27574.248      0.199         -4986.0826    
     20000   301.03294      0.69061842     0.58722678     35.594525      28.816567      27.156311      27854.555      0.2           -6815.8739    
     20100   300.46447      0.43001197     0.52216873     35.624187      28.601092      27.411169      27928.983      0.201         -4243.8882    
     20200   302.86215      0.62367157     0.52235859     35.653849      28.480469      27.297969      27719.405      0.202         -6155.1598    
     20300   296.9916       0.70208014     0.48459042     35.683511      28.609696      27.227812      27796.72       0.203         -6928.9922    
     20400   306.67399      0.9366986      0.4945024      35.713173      28.457214      27.297607      27742.487      0.204         -9244.4964    
     20500   300.52176      0.57817447     0.55428837     35.742835      28.399024      27.310738      27722.083      0.205         -5706.1383    
     20600   295.79178      0.5235414      0.50876512     35.772497      28.187053      27.550902      27780.161      0.206         -5166.9519    
     20700   309.01433      0.44220985     0.53350988     35.802159      28.138871      27.470038      27674.205      0.207         -4364.2719    
     20800   291.57462      0.55131831     0.57137625     35.831822      28.155671      27.458111      27701.636      0.208         -5441.0886    
     20900   301.28415      0.60136502     0.53898979     35.861484      28.304141      27.318362      27728.916      0.209         -5935.0113    
     21000   307.76543      0.69059346     0.46995822     35.891146      28.189401      27.277586      27598.095      0.21          -6815.6276    
     21100   301.03716      0.85524391     0.61722832     35.920808      28.138859      27.4173        27712.6        0.211         -8440.6011    
     21200   303.18521      0.81640019     0.64675858     35.95047       28.270911      27.421578      27869.991      0.212         -8057.2434    
     21300   302.42022      0.48217177     0.64779811     35.980132      28.500835      27.419052      28117.245      0.213         -4758.6654    
     21400   301.64948      0.34026518     0.4254837      36.009794      28.650301      27.274709      28139.084      0.214         -3358.1563    
     21500   299.0412       0.53552255     0.49518724     36.039456      28.760127      27.120446      28110.324      0.215         -5285.1967    
     21600   300.53752      0.45836977     0.4438793      36.069118      28.903464      27.059319      28209.949      0.216         -4523.758     
     21700   299.36142      0.6608874      0.50040127     36.09878       28.750275      27.151624      28179.309      0.217         -6522.4515    
     21800   295.23353      0.57804369     0.54816772     36.128443      28.79295       27.157757      28250.706      0.218         -5704.8477    
     21900   295.7358       0.32447454     0.45882994     36.158105      28.662579      27.357055      28352.429      0.219         -3202.3147    
     22000   289.22853      0.5720071      0.60921306     36.187767      28.380877      27.253673      27990.627      0.22          -5645.2711    
     22100   303.24388      0.68197576     0.60091987     36.217429      28.235492      27.262954      27879.559      0.221         -6730.5774    
     22200   307.67947      0.32874601     0.58437029     36.247091      28.251005      27.213714      27867.299      0.222         -3244.4709    
     22300   294.91772      0.40618791     0.40810981     36.276753      28.343872      27.026028      27788.801      0.223         -4008.763     
     22400   296.61967      0.95944789     0.6083434      36.306415      28.547749      26.895274      27876.049      0.224         -9469.0144    
     22500   303.67419      0.38007137     0.67202879     36.336077      28.644191      26.913389      28011.927      0.225         -3751.0128    
     22600   311.45834      0.61867457     0.57117635     36.365739      28.910167      26.778003      28152.775      0.226         -6105.8433    
     22700   296.41389      0.84971358     0.65086498     36.395402      28.840793      26.832298      28165.118      0.227         -8386.0211    
     22800   296.04686      0.49632893     0.69551579     36.425064      28.446431      26.941909      27916.21       0.228         -4898.3857    
     22900   295.51226      0.41364204     0.58834741     36.454726      28.537709      26.983503      28071.865      0.229         -4082.3295    
     23000   299.04125      0.40870222     0.53684349     36.484388      28.602562      27.021103      28197.791      0.23          -4033.5773    
     23100   294.89153      0.72774655     0.5760867      36.51405       28.726288      27.08106       28405.678      0.231         -7182.3001    
     23200   300.01721      0.58691315     0.65405327     36.543712      28.696026      27.080879      28398.617      0.232         -5792.3824    
     23300   298.17592      0.67307141     0.61111844     36.573374      28.570008      27.103656      28320.653      0.233         -6642.6983    
     23400   300.00115      0.26627977     0.69818518     36.603036      28.714881      26.86902       28240.733      0.234         -2627.977     
     23500   309.15968      0.38620782     0.69822615     36.632698      28.618197      26.917587      28219.369      0.235         -3811.5748    
     23600   308.17806      0.60929931     0.62130026     36.66236       28.512195      26.758795      27971.621      0.236         -6013.3167    
     23700   293.90401      0.52615717     0.63866425     36.692023      28.691486      26.486509      27883.637      0.237         -5192.7675    
     23800   303.79935      0.29424406     0.6474364      36.721685      28.718216      26.478498      27923.728      0.238         -2903.9631    
     23900   305.2365       0.61612298     0.58581255     36.751347      28.695448      26.6506        28105.625      0.239         -6080.6611    
     24000   303.24524      0.69687726     0.71966324     36.781009      28.957714      26.272009      27982.158      0.24          -6877.6438    
     24100   302.54317      0.5034963      0.70871362     36.810671      28.868232      26.601928      28268.778      0.241         -4969.1222    
     24200   304.10835      0.55044905     0.56490547     36.840333      29.013232      26.581999      28412.359      0.242         -5432.5098    
     24300   294.37965      0.73950213     0.63232267     36.869995      29.059885      26.504725      28398.164      0.243         -7298.3185    
     24400   297.6143       0.35347515     0.6143985      36.899657      28.740546      26.499736      28103.401      0.244         -3488.5285    
     24500   300.13873      0.45190837     0.69355269     36.929319      28.808498      26.465321      28155.879      0.245         -4459.9889    
     24600   296.90036      0.74509664     0.71231317     36.958982      28.682007      26.665153      28266.603      0.246         -7353.5321    
     24700   304.72979      0.44584285     0.57794569     36.988644      28.705899      26.563337      28204.746      0.247         -4400.1268    
     24800   304.64989      0.48819243     0.68763297     37.018306      28.7712        26.649337      28383.172      0.248         -4818.0847    
     24900   303.81002      0.54705301     0.56701531     37.047968      28.765382      26.659383      28410.876      0.249         -5398.9935    
     25000   302.24907      0.85195299     0.73971007     37.07763       28.909135      26.530904      28438.004      0.25          -8408.1223    
     25100   302.306        0.80611056     0.70669768     37.107292      28.936188      26.354373      28297.839      0.251         -7955.6927    
     25200   297.56443      0.85274185     0.68336567     37.136954      28.824142      26.27889       28129.997      0.252         -8415.9077    
     25300   299.06524      0.67442071     0.71120768     37.166616      28.771086      26.256163      28076.343      0.253         -6656.0149    
     25400   291.9529       0.77415177     0.78858789     37.196278      28.577918      26.242279      27895.338      0.254         -7640.2839    
     25500   300.51224      0.8552137      0.73617376     37.22594       28.526271      26.44782       28085.397      0.255         -8440.303     
     25600   298.55995      0.46165218     0.61904368     37.255603      28.517783      26.440851      28092.007      0.256         -4556.1527    
     25700   304.06056      0.58539271     0.67969223     37.285265      28.642716      26.41982       28215.079      0.257         -5777.3769    
     25800   304.75577      0.50933743     0.78684409     37.314927      28.423668      26.373065      27971.986      0.258         -5026.7696    
     25900   302.17847      0.93461069     0.77450676     37.344589      28.527847      26.496293      28228.11       0.259         -9223.8904    
     26000   294.44898      0.61761003     0.82074377     37.374251      28.868606      26.378349      28460.723      0.26          -6095.3371    
     26100   311.64182      0.92884267     0.74139184     37.403913      28.919417      26.303096      28452.042      0.261         -9166.9645    
     26200   301.47766      0.83693156     0.70575968     37.433575      28.966859      26.283057      28499.588      0.262         -8259.8723    
     26300   299.54529      0.99768851     0.74426012     37.463237      28.940256      26.419931      28644.376      0.263         -9846.42      
     26400   308.55484      0.53828533     0.75843356     37.492899      28.819732      26.469652      28601.394      0.264         -5312.4632    
     26500   299.02326      0.85529825     0.62151552     37.522561      28.901036      26.613634      28860.913      0.265         -8441.1374    
     26600   302.50179      0.70740932     0.71919858     37.552224      28.898826      26.460028      28714.824      0.266         -6981.5871    
     26700   301.68581      0.99181982     0.8165551      37.581886      29.084353      26.392527      28848.215      0.267         -9788.5006    
     26800   308.65794      0.82447829     0.63381481     37.611548      28.952389      26.266773      28603.048      0.268         -8136.968     
     26900   299.09569      0.69383329     0.6750809      37.64121       28.808747      26.35207       28576.082      0.269         -6847.6022    
     27000   296.54759      0.89188087     0.70497143     37.670872      28.528355      26.551665      28534.756      0.27          -8802.1798    
     27100   308.67262      0.88307554     0.69693262     37.700534      28.556206      26.775368      28825.938      0.271         -8715.278     
     27200   298.05371      0.71545534     0.72956295     37.730196      28.792669      26.707114      29013.355      0.272         -7060.9952    
     27300   303.93313      0.8083439      0.66521617     37.759858      28.849673      26.602609      28979.807      0.273         -7977.734     
     27400   302.73691      0.42223359     0.67843891     37.78952       28.927136      26.439358      28901.988      0.274         -4167.1215    
     27500   296.14372      0.99046911     0.76644347     37.819183      28.979378      26.452334      28991.134      0.275         -9775.1701    
     27600   297.2204       0.67815992     0.81509249     37.848845      28.723187      26.53947       28852.105      0.276         -6692.9181    
     27700   300.05378      0.69226398     0.77888919     37.878507      28.632273      26.61336       28863.459      0.277         -6832.1143    
     27800   294.11193      0.88456611     0.79106931     37.908169      28.738121      26.655558      29038.819      0.278         -8729.9888    
     27900   300.95703      0.87733618     0.67344641     37.937831      28.65668       26.631065      28952.555      0.279         -8658.6349    
     28000   303.31144      0.46774291     0.67331369     37.967493      28.585663      26.40526       28658.314      0.28          -4616.2636    
     28100   298.55913      0.79716719     0.70946323     37.997155      28.533016      26.359302      28578.055      0.281         -7867.4284    
     28200   306.77391      0.82789899     0.83397321     38.026817      28.609368      26.449991      28775.559      0.282         -8170.7277    
     28300   295.38139      0.83039551     0.73551085     38.056479      28.514851      26.418033      28668.184      0.283         -8195.3665    
     28400   291.24509      0.57912184     0.64137935     38.086141      28.51457       26.384772      28654.125      0.284         -5715.4882    
     28500   299.94372      0.96060896     0.64663483     38.115804      28.374823      26.447991      28604.275      0.285         -9480.4733    
     28600   300.85725      1.03686        0.75123241     38.145466      28.374029      26.419371      28594.757      0.286         -10233.013    
     28700   300.45261      0.85361995     0.86855643     38.175128      28.595215      26.306082      28716.403      0.287         -8424.5739    
     28800   293.10942      1.13445        0.69348121     38.20479       28.537593      26.387605      28769.686      0.288         -11196.151    
     28900   304.16668      0.86149488     0.83110677     38.234452      28.55647       26.541229      28978.801      0.289         -8502.2934    
     29000   301.79518      0.64614552     0.73837905     38.264114      28.651428      26.301427      28834.82       0.29          -6376.9605    
     29100   301.1881       0.70127362     0.76031475     38.293776      28.527679      26.461052      28906.915      0.291         -6921.0325    
     29200   303.3975       0.59315575     0.70760195     38.323438      28.482891      26.498688      28924.969      0.292         -5853.9921    
     29300   301.01039      0.83875985     0.81813706     38.3531        28.579955      26.443478      28985.487      0.293         -8277.9161    
     29400   308.58383      0.98867238     0.81981123     38.382762      28.509162      26.384516      28871.53       0.294         -9757.4377    
     29500   298.42373      0.74819322     0.70115904     38.412425      28.380435      26.590656      28988.104      0.295         -7384.093     
     29600   297.52754      0.63339751     0.69334914     38.442087      28.462514      26.501754      28997.117      0.296         -6251.1474    
     29700   301.44685      1.0496686      0.82753887     38.471749      28.422543      26.47384       28948.216      0.297         -10359.424    
     29800   298.96299      1.0384108      0.80907283     38.501411      28.439328      26.410566      28918.361      0.298         -10248.318    
     29900   296.36861      1.0678125      0.8661533      38.531073      28.645622      26.253326      28977.017      0.299         -10538.49     
     30000   293.9957       0.5315706      0.63096058     38.560735      28.739882      26.181692      29015.362      0.3           -5246.1939    
     30100   305.75201      0.8270823      0.77483331     38.590397      28.890598      26.290871      29311.683      0.301         -8162.6677    
     30200   305.00273      0.67532961     0.66344814     38.620059      28.926912      26.33462       29419.96       0.302         -6664.9851    
     30300   295.61244      0.74363832     0.68654355     38.649721      29.098105      26.233928      29503.558      0.303         -7339.1396    
     30400   305.09088      0.48934135     0.70342859     38.679384      28.807992      26.271443      29273.622      0.304         -4829.4236    
     30500   291.90305      1.01142        0.78331035     38.709046      28.735192      26.196547      29138.73       0.305         -9981.9396    
     30600   301.88927      0.87235297     0.85969856     38.738708      28.851768      26.242441      29330.657      0.306         -8609.4545    
     30700   300.3446       0.658349       0.73271514     38.76837       28.764879      26.21732       29236.702      0.307         -6497.3994    
     30800   299.2402       0.85135994     0.79931541     38.798032      28.806659      26.083501      29152.007      0.308         -8402.2693    
     30900   295.56578      1.0420393      0.93001368     38.827694      28.719846      26.145125      29155.093      0.309         -10284.129    
     31000   302.85399      1.0765643      0.92015221     38.857356      28.727483      26.047941      29076.641      0.31          -10624.863    
     31100   302.15195      1.0209888      0.88947613     38.887018      28.709921      26.058166      29092.463      0.311         -10076.376    
     31200   295.26141      0.75844586     0.99799472     38.91668       28.640139      25.946906      28919.88       0.312         -7485.2786    
     31300   303.84109      0.77322803     0.87458984     38.946342      28.659593      25.927436      28939.849      0.313         -7631.1674    
     31400   305.93231      0.63053249     0.87541865     38.976005      28.735556      25.748391      28838.125      0.314         -6222.8718    
     31500   294.96318      1.1310964      0.92014727     39.005667      28.884779      25.821949      29092.817      0.315         -11163.053    
     31600   300.68085      0.76792359     0.8498242      39.035329      28.873864      25.857613      29144.136      0.316         -7578.8166    
     31700   295.71651      0.86412367     0.81227504     39.064991      28.809208      25.97067       29228.209      0.317         -8528.2376    
     31800   299.91666      1.5040111      0.89422018     39.094653      28.559791      26.250652      29309.775      0.318         -14843.436    
     31900   295.83151      1.0834659      0.88728875     39.124315      28.640274      26.255758      29420.394      0.319         -10692.977    
     32000   295.87818      1.1121129      0.87601836     39.153977      28.740317      26.198831      29481.485      0.32          -10975.701    
     32100   302.86492      0.93432862     0.79790414     39.183639      28.615995      26.032982      29190.232      0.321         -9221.1065    
     32200   290.62361      1.3699429      0.78969416     39.213301      28.612225      26.247706      29449.396      0.322         -13520.285    
     32300   298.89149      1.0720731      0.89414082     39.242964      28.483157      26.183219      29266.646      0.323         -10580.539    
     32400   308.99806      0.77522662     0.94511084     39.272626      28.371273      26.196438      29188.449      0.324         -7650.8919    
     32500   301.22743      0.64844036     0.8542128      39.302288      28.203428      26.097403      28927.908      0.325         -6399.6088    
     32600   300.90824      0.78003352     0.78010016     39.33195       28.444114      26.098422      29197.935      0.326         -7698.3323    
     32700   305.70331      0.88721541     0.92198631     39.361612      28.529092      26.088832      29296.481      0.327         -8756.1353    
     32800   299.26158      1.1618579      0.91044868     39.391274      28.695479      25.926113      29305.619      0.328         -11466.646    
     32900   308.39046      0.8395654      0.95745551     39.420936      28.56819       26.03016       29314.771      0.329         -8285.8662    
     33000   302.55386      0.78322357     0.75385749     39.450598      28.535371      25.965189      29229.986      0.33          -7729.8157    
     33100   300.18494      1.0790565      0.79689404     39.48026       28.325508      26.140595      29232.986      0.331         -10649.46     
     33200   302.91841      1.0324527      0.89828178     39.509922      28.371016      25.998865      29143.081      0.332         -10189.516    
     33300   300.76447      0.9719327      1.0109087      39.539585      28.327296      25.663349      28744.222      0.333         -9592.2299    
     33400   302.54763      1.166438       0.97326165     39.569247      28.205151      25.867543      28869.642      0.334         -11511.848    
     33500   288.61182      1.2533384      1.0438484      39.598909      28.076861      25.993211      28899.592      0.335         -12369.488    
     33600   304.59879      0.80880914     0.97822417     39.628571      27.794849      26.147316      28800.488      0.336         -7982.3256    
     33700   298.98953      0.61320594     0.77811534     39.658233      28.044461      25.943625      28854.338      0.337         -6051.8721    
     33800   303.03257      1.1505896      0.89970578     39.687895      28.162502      26.20089       29285.008      0.338         -11355.437    
     33900   304.28716      0.98961441     0.9707604      39.717557      28.182545      26.13924       29258.745      0.339         -9766.7349    
     34000   301.02247      1.0059303      0.90645573     39.747219      28.245826      26.111507      29315.207      0.34          -9927.76      
     34100   303.51074      0.80267931     0.9002404      39.776881      28.33988       25.96135       29265.505      0.341         -7921.8288    
     34200   302.29845      0.66883068     0.8494242      39.806543      28.545248      25.901196      29431.21       0.342         -6600.8456    
     34300   297.96615      0.85950016     0.8501569      39.836206      28.60632       25.910469      29526.722      0.343         -8482.6071    
     34400   300.14718      0.92473168     0.85169437     39.865868      28.580896      25.54883       29110.393      0.344         -9126.3921    
     34500   303.98008      0.99003515     0.92169481     39.89553       28.408601      25.708936      29137.897      0.345         -9770.8873    
     34600   304.87097      1.1821947      1.0050624      39.925192      28.536523      25.626118      29196.507      0.346         -11667.355    
     34700   300.24369      1.1532165      1.0768165      39.954854      28.406362      25.568573      29019.615      0.347         -11381.362    
     34800   291.14325      0.7620619      0.88005715     39.984516      28.252031      25.824024      29171.948      0.348         -7520.9662    
     34900   306.15442      1.0775242      1.0438487      40.014178      28.392878      25.896477      29421.446      0.349         -10634.337    
     35000   303.22689      1.2871332      1.0260627      40.04384       28.288039      25.845201      29276.454      0.35          -12703.017    
     35100   302.06081      1.2336792      1.0555843      40.073502      28.416522      25.813268      29394.847      0.351         -12175.467    
     35200   308.50741      0.6809147      0.94326649     40.103165      28.265327      25.582063      28998.012      0.352         -6720.1056    
     35300   300.52851      1.0983171      0.9590351      40.132827      28.09389       25.692308      28967.749      0.353         -10839.547    
     35400   288.71004      1.3471386      1.0631978      40.162489      28.140115      25.84843       29213.302      0.354         -13295.224    
     35500   298.12843      1.0124039      1.0091683      40.192151      28.239837      25.888767      29384.263      0.355         -9991.6494    
     35600   293.69725      0.94566228     0.99393393     40.221813      28.153189      25.818807      29236.502      0.356         -9332.961     
     35700   299.83497      1.2077715      1.0561384      40.251475      28.161762      25.673988      29102.811      0.357         -11919.778    
     35800   301.96091      1.2108291      1.0816112      40.281137      28.025465      25.78988       29114.135      0.358         -11949.954    
     35900   292.40001      1.4343083      1.209499       40.310799      27.895067      25.802691      29014.416      0.359         -14155.522    
     36000   300.34977      0.87759625     1.0801069      40.340461      27.839762      25.83898       29018.953      0.36          -8661.2015    
     36100   306.01581      1.0167655      1.0369456      40.370123      27.920243      26.000831      29306.671      0.361         -10034.696    
     36200   288.23409      0.99434169     1.1621926      40.399786      27.81117       25.928906      29132.818      0.362         -9813.3895    
     36300   302.3925       1.226945       0.99142559     40.429448      27.904717      25.859507      29173.98       0.363         -12109.006    
     36400   298.40907      0.99426899     1.064053       40.45911       27.986303      25.817052      29232.671      0.364         -9812.672     
     36500   305.2231       0.75908715     1.0588711      40.488772      27.942737      25.773956      29159.806      0.365         -7491.6076    
     36600   299.96354      0.65525183     1.0039902      40.518434      28.153169      25.64693       29256.026      0.366         -6466.8327    
     36700   296.74684      1.2472839      0.93070077     40.548096      28.208751      25.556144      29231.403      0.367         -12309.735    
     36800   300.14688      1.0183458      1.1322507      40.577758      28.333943      25.419151      29225.107      0.368         -10050.292    
     36900   299.66418      1.0728131      1.0961442      40.60742       28.126605      25.537843      29168.019      0.369         -10587.842    
     37000   296.59972      1.109049       1.0655431      40.637082      28.091879      25.575992      29196.836      0.37          -10945.462    
     37100   304.89393      1.0032133      1.0866169      40.666744      27.954488      25.772911      29299.11       0.371         -9900.9455    
     37200   291.91342      1.0427071      1.1366704      40.696407      27.933519      25.741798      29263.117      0.372         -10290.719    
     37300   301.67453      0.9196414      1.0244155      40.726069      28.025827      25.615599      29237.178      0.373         -9076.1549    
     37400   301.10728      1.0880823      1.1140969      40.755731      27.891297      25.681964      29193.464      0.374         -10738.538    
     37500   300.07541      1.0963904      1.0188546      40.785393      28.03476       25.56558       29231.907      0.375         -10820.532    
     37600   303.64698      0.97284701     1.184685       40.815055      27.920834      25.60096       29174.608      0.376         -9601.2535    
     37700   305.05408      1.0419516      1.0937911      40.844717      27.838005      25.679716      29198.747      0.377         -10283.263    
     37800   296.05896      1.3980185      1.2550045      40.874379      27.762027      25.631595      29085.596      0.378         -13797.37     
     37900   307.44003      1.3025769      1.2728592      40.904041      27.72528       25.609113      29042.68       0.379         -12855.434    
     38000   296.10858      1.6181426      1.2104987      40.933703      27.841501      25.608424      29184.787      0.38          -15969.826    
     38100   301.7831       1.2924663      1.2269565      40.963366      27.870614      25.498357      29110.814      0.381         -12755.651    
     38200   303.141        1.1859857      1.1964114      40.993028      27.78791       25.668751      29239.546      0.382         -11704.768    
     38300   291.60834      1.2593578      1.191896       41.02269       27.752191      25.631961      29181.207      0.383         -12428.895    
     38400   302.54701      1.2436742      1.256801       41.052352      27.838185      25.527781      29173.735      0.384         -12274.11     
     38500   294.09263      1.0491492      1.2344594      41.082014      28.191928      25.41464       29434.757      0.385         -10354.297    
     38600   300.90819      1.0486563      1.2265668      41.111676      28.331921      25.242859      29402.195      0.386         -10349.433    
     38700   302.16322      1.3155213      1.1914878      41.141338      28.479266      25.299481      29642.773      0.387         -12983.185    
     38800   292.69844      1.2164124      1.4076166      41.171         28.152862      25.339825      29370.922      0.388         -12005.057    
     38900   300.43939      1.1737758      1.4084677      41.200662      27.962673      25.298197      29145.563      0.389         -11584.266    
     39000   300.82434      1.2212632      1.2191252      41.230324      27.912581      25.404968      29237.175      0.39          -12052.93     
     39100   302.16515      1.3189134      1.3643663      41.259987      27.917676      25.418513      29279.151      0.391         -13016.664    
     39200   302.98899      1.3766049      1.2598746      41.289649      27.973811      25.39485       29331.784      0.392         -13586.034    
     39300   308.11421      1.1509539      1.3832186      41.319311      27.950778      25.37628       29307.241      0.393         -11359.032    
     39400   293.96731      1.1377157      1.2955542      41.348973      27.994426      25.369775      29366.548      0.394         -11228.381    
     39500   300.39239      1.1556171      1.2649698      41.378635      28.235339      25.232347      29479.955      0.395         -11405.054    
     39600   297.8665       1.3235233      1.4136369      41.408297      28.011295      25.380458      29438.793      0.396         -13062.159    
     39700   294.90994      1.4393813      1.3446776      41.437959      28.125806      25.40468       29608.545      0.397         -14205.589    
     39800   307.51903      1.2807602      1.4351367      41.467621      28.034901      25.171167      29262.506      0.398         -12640.12     
     39900   296.29267      1.1251835      1.3892556      41.497283      27.860652      25.292026      29241.158      0.399         -11104.698    
     40000   305.96483      1.2165684      1.3721885      41.526946      28.056116      25.184718      29342.333      0.4           -12006.597    
     40100   302.19103      1.3896777      1.3621895      41.556608      27.926807      25.302596      29364.759      0.401         -13715.053    
     40200   301.86103      1.3752671      1.5290315      41.58627       27.850643      25.402927      29421.781      0.402         -13572.831    
     40300   293.03755      1.1902602      1.2969208      41.615932      27.861154      25.219126      29240.766      0.403         -11746.954    
     40400   296.13554      1.4645639      1.3053995      41.645594      27.79055       25.123222      29076.46       0.404         -14454.122    
     40500   296.42224      1.3676815      1.5195789      41.675256      27.788692      25.205478      29190.486      0.405         -13497.966    
     40600   304.99805      1.3967734      1.5024986      41.704918      27.698155      25.249543      29166.992      0.406         -13785.081    
     40700   299.30477      1.3257737      1.5343807      41.73458       27.636998      25.384389      29278.823      0.407         -13084.369    
     40800   300.60794      1.5102895      1.5064455      41.764242      27.531594      25.359076      29158.783      0.408         -14905.398    
     40900   297.35851      1.5536658      1.4913535      41.793904      27.834693      25.33669       29474.691      0.409         -15333.489    
     41000   302.38047      1.2171917      1.2930931      41.823567      27.737053      25.407716      29474.537      0.41          -12012.748    
     41100   293.48601      1.9260771      1.445242       41.853229      27.948031      25.265686      29553.661      0.411         -19008.903    
     41200   297.13323      1.4330629      1.4255397      41.882891      27.764857      25.30987       29432.152      0.412         -14143.231    
     41300   298.56856      1.3385406      1.4029561      41.912553      27.827928      25.186307      29375.784      0.413         -13210.369    
     41400   300.1852       1.7783346      1.4382008      41.942215      27.862426      25.268965      29529.612      0.414         -17550.798    
     41500   305.88643      1.5914458      1.4270727      41.971877      27.928945      25.1694        29504.332      0.415         -15706.349    
     41600   303.54225      1.2963993      1.4619152      42.001539      27.633902      25.199578      29248.304      0.416         -12794.466    
     41700   302.25377      1.5446106      1.4560774      42.031201      27.760895      25.369382      29601.598      0.417         -15244.122    
     41800   297.17854      1.5820627      1.4546684      42.060863      28.003682      25.068277      29526.898      0.418         -15613.744    
     41900   297.74839      1.7488862      1.4447079      42.090525      27.99369       25.058267      29525.382      0.419         -17260.165    
     42000   299.61778      1.6048054      1.5558973      42.120188      28.118209      25.038954      29654.741      0.42          -15838.198    
     42100   295.93882      1.4393259      1.5672914      42.14985       28.153021      25.055865      29732.432      0.421         -14205.042    
     42200   299.50299      1.4132674      1.4790381      42.179512      27.797747      25.255973      29612.513      0.422         -13947.865    
     42300   296.6102       1.3023637      1.5479603      42.209174      27.799373      25.243216      29620.101      0.423         -12853.331    
     42400   299.53179      1.2236254      1.5473465      42.238836      27.716858      25.1184        29406.81       0.424         -12076.243    
     42500   302.70024      1.5735167      1.4544246      42.268498      27.855288      24.945609      29370.99       0.425         -15529.403    
     42600   302.61485      1.4792718      1.5351222      42.29816       27.955179      24.823545      29352.666      0.426         -14599.278    
     42700   293.95812      1.9256066      1.6024402      42.327822      28.099657      24.928651      29650.07       0.427         -19004.26     
     42800   296.12254      1.7311728      1.5847784      42.357484      28.244863      24.89849       29788.089      0.428         -17085.347    
     42900   298.11522      1.6232731      1.6705773      42.387147      27.973572      24.856951      29473.382      0.429         -16020.46     
     43000   305.7475       1.8255576      1.6126911      42.416809      27.941387      25.04035       29677.433      0.43          -18016.853    
     43100   296.68507      1.5604203      1.5873636      42.446471      27.953312      25.162023      29855.23       0.431         -15400.151    
     43200   292.0509       1.6803343      1.6523487      42.476133      28.198604      24.943864      29876.954      0.432         -16583.61     
     43300   308.13482      1.830961       1.5421598      42.505795      28.029969      24.811597      29561.432      0.433         -18070.18     
     43400   296.97021      1.6545552      1.605956       42.535457      27.79708       25.046083      29613.525      0.434         -16329.191    
     43500   296.06568      1.8233111      1.7134291      42.565119      27.926625      25.108213      29846.137      0.435         -17994.681    
     43600   308.74034      2.0356473      1.7055867      42.594781      28.061407      24.997416      29878.648      0.436         -20090.277    
     43700   288.62188      1.6674911      1.7059457      42.624443      27.952593      24.930264      29703.506      0.437         -16456.857    
     43800   292.81355      1.4777607      1.5977892      42.654105      28.10059       24.786411      29709.129      0.438         -14584.364    
     43900   295.30827      1.414643       1.6190135      42.683768      28.050981      24.880645      29790.133      0.439         -13961.441    
     44000   300.52413      1.7816996      1.6393598      42.71343       27.993006      24.854963      29718.514      0.44          -17584.008    
     44100   299.84573      1.6163098      1.7119563      42.743092      28.099803      24.913944      29923.453      0.441         -15951.738    
     44200   299.34268      1.7520158      1.6927564      42.772754      28.243711      24.765791      29918.594      0.442         -17291.051    
     44300   294.25019      1.5410964      1.6487089      42.802416      28.365908      24.551444      29808.629      0.443         -15209.439    
     44400   294.21965      1.5726234      1.7292062      42.832078      28.425823      24.442635      29759.814      0.444         -15520.586    
     44500   303.59732      1.7023244      1.7501497      42.86174       28.269822      24.65842       29878.454      0.445         -16800.635    
     44600   293.65649      1.8211869      1.6588819      42.891402      28.126915      24.770096      29882.714      0.446         -17973.717    
     44700   299.79333      1.5565299      1.6971619      42.921064      28.159445      24.745833      29908.64       0.447         -15361.756    
     44800   300.78155      1.4715957      1.692688       42.950727      28.198405      24.644883      29848.452      0.448         -14523.521    
     44900   301.75099      1.7113693      1.7262426      42.980389      28.164014      24.732758      29939.009      0.449         -16889.901    
     45000   302.79214      1.6957298      1.6896475      43.010051      28.245897      24.680133      29982.844      0.45          -16735.551    
     45100   293.7115       1.7325054      1.727362       43.039713      28.229693      24.552316      29831.012      0.451         -17098.499    
     45200   304.96046      1.8823963      1.7137066      43.069375      28.192706      24.669754      29955.057      0.452         -18577.807    
     45300   300.23967      1.9297803      1.7884333      43.099037      28.098841      24.622939      29819.192      0.453         -19045.451    
     45400   294.09241      1.8874258      1.6621871      43.128699      28.126569      24.663117      29917.898      0.454         -18627.444    
     45500   303.49872      2.0622016      1.7892612      43.158361      28.010044      24.569122      29700.816      0.455         -20352.347    
     45600   300.91828      1.8093436      1.8423987      43.188023      28.099343      24.418171      29632.796      0.456         -17856.833    
     45700   298.56408      1.7247303      1.8573284      43.217685      28.12714       24.329412      29574.588      0.457         -17021.765    
     45800   306.18514      1.9016502      1.7554016      43.247348      27.934158      24.60946       29730.154      0.458         -18767.829    
     45900   302.84574      1.6810006      1.8680107      43.27701       27.993         24.753213      29987.362      0.459         -16590.186    
     46000   301.80897      1.7167873      1.7688175      43.306672      28.150737      24.582771      29969.219      0.46          -16943.374    
     46100   307.18967      1.7032041      1.9448524      43.336334      28.124697      24.663362      30060.231      0.461         -16809.317    
     46200   303.46745      1.8829401      1.8267382      43.365996      28.36691       24.482263      30117.083      0.462         -18583.174    
     46300   296.27157      1.8394872      1.9169714      43.395658      28.44705       24.415051      30139.855      0.463         -18154.327    
     46400   299.68149      2.0006277      1.8041476      43.42532       28.12764       24.616625      30068.021      0.464         -19744.661    
     46500   309.66516      1.8727563      1.9030924      43.454982      28.149534      24.582613      30070.374      0.465         -18482.668    
     46600   299.59089      2.1658838      1.9220719      43.484644      28.124111      24.712365      30222.406      0.466         -21375.611    
     46700   302.21309      1.8550286      1.9122317      43.514306      28.285266      24.547343      30213.207      0.467         -18307.709    
     46800   298.86003      1.8220593      1.8956238      43.543969      28.421522      24.584759      30425.751      0.468         -17982.327    
     46900   300.90298      2.2179771      1.9592109      43.573631      28.686737      24.395577      30494.112      0.469         -21889.732    
     47000   306.33555      1.9876374      1.9386474      43.603293      28.678812      24.164731      30217.77       0.47          -19616.456    
     47100   304.29813      1.9989736      1.9885446      43.632955      28.716692      24.125695      30229.353      0.471         -19728.335    
     47200   296.97857      1.7700933      2.0021288      43.662617      28.517757      24.161006      30084.316      0.472         -17469.463    
     47300   307.10611      1.846672       1.9233695      43.692279      28.322164      24.326567      30103.151      0.473         -18225.235    
     47400   299.56377      2.1491254      1.9915746      43.721941      28.588268      24.303402      30377.663      0.474         -21210.218    
     47500   299.25331      2.1142834      1.982445       43.751603      28.456314      24.235027      30172.836      0.475         -20866.355    
     47600   293.10037      1.8478469      1.9781861      43.781265      28.765416      24.131541      30390.933      0.476         -18236.831    
     47700   297.21883      2.1515818      1.9667461      43.810928      28.676468      23.989853      30139.477      0.477         -21234.461    
     47800   304.45156      2.2547893      2.1057333      43.84059       28.631341      24.043224      30179.412      0.478         -22253.041    
     47900   297.41411      2.1676465      2.0907877      43.870252      28.623508      24.018109      30160.031      0.479         -21393.007    
     48000   299.94101      1.7339547      2.0502762      43.899914      28.80839       23.848368      30160.693      0.48          -17112.802    
     48100   294.12099      1.9850428      2.0625773      43.929576      28.755984      23.838538      30113.752      0.481         -19590.849    
     48200   303.33888      1.7946536      2.08103        43.959238      28.66954       23.786811      29978.307      0.482         -17711.854    
     48300   301.78637      1.8733349      2.0501037      43.9889        28.714669      23.998725      30313.43       0.483         -18488.378    
     48400   295.72174      2.0091335      2.0954823      44.018562      28.821401      23.937608      30369.084      0.484         -19828.606    
     48500   305.42657      1.8307601      2.0320527      44.048224      28.716503      23.910554      30244.722      0.485         -18068.198    
     48600   297.08932      2.3003332      2.0764364      44.077886      28.780837      24.098739      30571.623      0.486         -22702.524    
     48700   299.16064      2.3432183      2.093235       44.107549      28.664982      24.087866      30455.303      0.487         -23125.766    
     48800   304.08923      2.0645779      2.0462309      44.137211      28.47302       24.041629      30213.588      0.488         -20375.799    
     48900   299.95984      2.1688561      2.0336217      44.166873      28.345622      24.101321      30173.347      0.489         -21404.945    
     49000   294.01172      2.467566       2.2636653      44.196535      28.21109       24.152891      30114.608      0.49          -24352.983    
     49100   307.40399      2.2055578      2.1190346      44.226197      28.194896      24.001549      29928.804      0.491         -21767.164    
     49200   295.88099      2.1398515      2.1687942      44.255859      28.63962       23.675908      30008.526      0.492         -21118.692    
     49300   300.61713      2.1808765      2.2024849      44.285521      28.681637      23.710837      30117.061      0.493         -21523.577    
     49400   304.33215      2.3455909      2.2611713      44.315183      28.759141      23.714302      30223.085      0.494         -23149.182    
     49500   301.57914      2.191211       2.2742459      44.344845      28.758201      23.60101       30097.849      0.495         -21625.571    
     49600   294.86941      2.2948198      2.2682798      44.374507      28.798497      23.684883      30267.365      0.496         -22648.11     
     49700   299.86902      2.081651       2.2729878      44.40417       28.615755      23.67091       30077.651      0.497         -20544.298    
     49800   298.46714      2.2056477      2.3466205      44.433832      28.692599      23.644215      30144.532      0.498         -21768.05     
     49900   290.98312      2.1713802      2.2649982      44.463494      28.827011      23.65146       30315.249      0.499         -21429.856    
     50000   302.47877      2.4578458      2.2220192      44.493156      28.974087      23.50267       30298.434      0.5           -24257.052    
     50100   303.31985      2.2903404      2.3457163      44.522818      28.917786      23.700575      30514.521      0.501         -22603.903    
     50200   298.47817      2.3920379      2.2568007      44.55248       29.180552      23.493997      30543.746      0.502         -23607.579    
     50300   297.86267      2.2420792      2.2131024      44.582142      29.06601       23.383617      30301.075      0.503         -22127.601    
     50400   305.48922      2.3741889      2.3749763      44.611804      29.16432       23.518376      30599.123      0.504         -23431.423    
     50500   297.77118      2.1530988      2.3760383      44.641466      29.047238      23.374221      30309.616      0.505         -21249.433    
     50600   307.28625      2.4021637      2.3495377      44.671129      29.000863      23.323536      30215.671      0.506         -23707.513    
     50700   300.41011      2.3585501      2.4058039      44.700791      29.027729      23.370301      30324.425      0.507         -23277.079    
     50800   299.09065      2.5531224      2.4308055      44.730453      28.887857      23.550103      30430.663      0.508         -25197.359    
     50900   298.61937      2.3705726      2.3282564      44.760115      28.963788      23.582677      30573.113      0.509         -23395.732    
     51000   301.28374      2.3382965      2.4935596      44.789777      28.978496      23.512536      30517.869      0.51          -23077.192    
     51100   304.94306      2.4709228      2.4887002      44.819439      28.949593      23.449344      30425.63       0.511         -24386.112    
     51200   296.51346      2.6228808      2.5023198      44.849101      28.68951       23.458597      30184.147      0.512         -25885.821    
     51300   298.37467      2.6938826      2.4014847      44.878763      28.540918      23.475037      30068.732      0.513         -26586.554    
     51400   303.77585      2.1069187      2.6154136      44.908425      28.395148      23.606564      30102.651      0.514         -20793.671    
     51500   295.69168      2.4988933      2.5254755      44.938087      28.526341      23.395752      29991.464      0.515         -24662.16     
     51600   300.98585      2.355895       2.6727554      44.96775       28.404157      23.371346      29851.543      0.516         -23250.876    
     51700   304.03257      2.3818872      2.4561347      44.997412      28.519184      23.422467      30057.804      0.517         -23507.399    
     51800   296.7389       2.608106       2.5476352      45.027074      28.608002      23.545139      30329.309      0.518         -25740.005    
     51900   302.35369      2.5282874      2.5466119      45.056736      28.622614      23.454164      30247.464      0.519         -24952.257    
     52000   308.24304      2.7086078      2.6166323      45.086398      28.734226      23.274644      30152.831      0.52          -26731.881    
     52100   300.79567      2.5327322      2.6129569      45.11606       28.797182      23.329156      30309.6        0.521         -24996.123    
     52200   298.43839      2.5179039      2.6834145      45.145722      28.826812      23.303316      30327.105      0.522         -24849.779    
     52300   300.01472      2.6883846      2.7430424      45.175384      28.819496      23.249599      30269.393      0.523         -26532.293    
     52400   307.25898      2.2779991      2.6049582      45.205046      28.675597      23.383652      30311.799      0.524         -22482.103    
     52500   295.62736      2.6060655      2.6266629      45.234709      28.850201      23.316808      30429.144      0.525         -25719.867    
[...]
     87400   301.67128      11.193792      10.954627      55.586783      26.909224      21.048055      31483.623      0.874         -110474.14    
     87500   300.1184       11.120879      11.059288      55.616445      26.836246      20.924108      31229.998      0.875         -109754.54    
     87600   296.68629      11.073289      10.917262      55.646107      26.959379      20.983614      31479.293      0.876         -109284.87    
     87700   297.13129      11.076702      11.025551      55.675769      26.815943      20.971528      31310.455      0.877         -109318.55    
     87800   300.59757      11.03391       11.12694       55.705431      26.700645      21.010485      31250.385      0.878         -108896.23    
     87900   296.32065      11.254209      11.212713      55.735093      26.702043      20.905793      31112.856      0.879         -111070.4     
     88000   299.6666       11.493915      11.358935      55.764755      26.696178      21.064587      31358.974      0.88          -113436.13    
     88100   304.41066      11.240633      11.260864      55.794418      26.542934      20.952267      31029.208      0.881         -110936.42    
     88200   295.99944      11.410359      11.348697      55.82408       26.64699       21.069311      31341.52       0.882         -112611.48    
     88300   297.18287      11.399973      11.448921      55.853742      26.50291       21.277363      31496.597      0.883         -112508.98    
     88400   297.21064      11.408021      11.283794      55.883404      26.599836      21.156678      31449.177      0.884         -112588.42    
     88500   300.5554       11.552942      11.353645      55.913066      26.524265      21.259947      31529.628      0.885         -114018.67    
     88600   301.44505      11.268545      11.369676      55.942728      26.521699      21.200459      31455.039      0.886         -111211.89    
     88700   299.14714      11.668722      11.422182      55.97239       26.699355      21.066953      31483.017      0.887         -115161.34    
     88800   301.02422      11.462042      11.437555      56.002052      26.899074      20.993607      31624.84       0.888         -113121.56    
     88900   282.95347      11.419459      11.475619      56.031714      26.884906      20.9126        31502.895      0.889         -112701.3     
     89000   297.77179      11.447931      11.46513       56.061376      26.896817      20.83078       31410.163      0.89          -112982.29    
     89100   302.43313      11.559453      11.54708       56.091039      26.959562      20.89123       31591.505      0.891         -114082.93    
     89200   305.66694      11.25878       11.590884      56.120701      27.104667      20.765953      31587.775      0.892         -111115.52    
     89300   298.30513      11.495129      11.543478      56.150363      26.906815      20.870941      31532.391      0.893         -113448.1     
     89400   299.32908      11.756826      11.673333      56.180025      26.900777      20.861445      31527.616      0.894         -116030.85    
     89500   307.81692      11.708499      11.672999      56.209687      26.935158      20.916412      31667.8        0.895         -115553.9     
     89600   299.03373      11.932866      11.622452      56.239349      26.770644      20.964283      31563.061      0.896         -117768.23    
     89700   297.65292      11.724056      11.739555      56.269011      26.776069      20.938069      31546.612      0.897         -115707.44    
     89800   303.57321      11.717432      11.749986      56.298673      26.619685      20.905854      31330.62       0.898         -115642.07    
     89900   295.90943      11.686119      11.809561      56.328335      26.545308      20.980221      31370.739      0.899         -115333.02    
     90000   304.43456      11.889154      11.859071      56.357997      26.474104      21.079455      31451.126      0.9           -117336.83    
     90100   288.33365      11.973605      11.959006      56.38766       26.521112      20.984538      31381.609      0.901         -118170.29    
     90200   293.97062      11.849177      11.922746      56.417322      26.726358      20.81915       31391.73       0.902         -116942.28    
     90300   302.96032      12.203822      11.988537      56.446984      26.69297       20.991285      31628.36       0.903         -120442.36    
     90400   308.70487      12.03793       12.012127      56.476646      26.649863      20.98509       31584.552      0.904         -118805.13    
     90500   292.91762      12.262778      12.047114      56.506308      26.550109      20.870882      31311.511      0.905         -121024.21    
     90600   305.8026       12.214895      12.13763       56.53597       26.352439      20.95123       31214.415      0.906         -120551.64    
     90700   290.97652      12.46996       12.252636      56.565632      26.384345      20.928689      31234.963      0.907         -123068.94    
     90800   294.48527      12.25779       12.292175      56.595294      26.325532      20.85048       31065.155      0.908         -120974.98    
     90900   300.65824      12.285719      12.25812       56.624956      26.424778      20.889541      31257.06       0.909         -121250.62    
     91000   296.82313      12.401484      12.37892       56.654619      26.291586      20.863236      31076.621      0.91          -122393.13    
     91100   303.67835      12.380153      12.402551      56.684281      26.480471      20.862555      31315.247      0.911         -122182.61    
     91200   304.41335      12.408851      12.401111      56.713943      26.612466      20.708591      31255.432      0.912         -122465.84    
     91300   293.8045       12.414347      12.300753      56.743605      26.767929      20.568168      31241.17       0.913         -122520.08    
     91400   298.256        12.277512      12.383983      56.773267      26.54767       20.800471      31350.427      0.914         -121169.63    
     91500   297.7218       12.587513      12.46492       56.802929      26.365491      20.854152      31231.952      0.915         -124229.1     
     91600   298.75904      12.707461      12.580865      56.832591      26.324421      20.907091      31278.786      0.916         -125412.89    
     91700   295.77677      12.572949      12.579462      56.862253      26.334485      20.866812      31246.76       0.917         -124085.36    
     91800   298.99195      12.572371      12.639091      56.891915      26.302597      20.758758      31063.512      0.918         -124079.66    
     91900   299.12673      12.789238      12.650113      56.921577      26.338513      20.789245      31167.853      0.919         -126219.97    
     92000   303.0358       12.682865      12.830828      56.95124       26.264711      20.868558      31215.354      0.92          -125170.15    
     92100   289.86144      12.861941      12.668269      56.980902      26.521931      20.779994      31403.632      0.921         -126937.49    
     92200   294.19748      12.678134      12.796093      57.010564      26.560059      20.729602      31388.845      0.922         -125123.46    
     92300   300.13718      13.013117      12.878476      57.040226      26.425558      20.657271      31137.114      0.923         -128429.48    
     92400   294.41171      12.994909      12.912274      57.069888      26.404433      20.609515      31056.438      0.924         -128249.78    
     92500   297.53548      13.07593       13.002155      57.09955       26.509758      20.610799      31198.468      0.925         -129049.4     
     92600   293.21891      12.859455      12.883281      57.129212      26.502809      20.843408      31558.682      0.926         -126912.95    
     92700   295.44957      12.958579      12.863028      57.158874      26.544428      20.833088      31608.996      0.927         -127891.23    
     92800   301.252        13.098537      12.858995      57.188536      26.397277      20.937471      31607.659      0.928         -129272.51    
     92900   298.31828      13.021774      12.895427      57.218198      26.245053      21.027867      31577.436      0.929         -128514.91    
     93000   299.38728      13.185479      13.047215      57.247861      26.398412      20.788839      31417.187      0.93          -130130.56    
     93100   305.4967       12.873469      12.944101      57.277523      26.443187      20.871169      31611.477      0.931         -127051.26    
     93200   303.60442      12.977555      12.95984       57.307185      26.423157      20.924339      31684.402      0.932         -128078.51    
     93300   296.38063      13.104395      13.008855      57.336847      26.338964      20.901236      31564.903      0.933         -129330.33    
     93400   308.76876      12.934688      13.127248      57.366509      26.490188      20.849584      31684.062      0.934         -127655.44    
     93500   295.61126      13.463311      13.156374      57.396171      26.471391      20.747802      31523.306      0.935         -132872.55    
     93600   295.42438      13.454941      13.195614      57.425833      26.350464      20.789123      31458.046      0.936         -132789.94    
     93700   305.94432      13.303206      13.224296      57.455495      26.312914      20.773291      31405.509      0.937         -131292.44    
     93800   300.49915      13.46818       13.31231       57.485157      26.399165      20.668999      31366.449      0.938         -132920.6     
     93900   299.03747      13.56235       13.272331      57.51482       26.474033      20.801072      31672.737      0.939         -133849.99    
     94000   303.37046      13.533933      13.394801      57.544482      26.359738      20.930681      31748.86       0.94          -133569.53    
     94100   299.92039      13.728037      13.37917       57.574144      26.29966       20.814736      31517.266      0.941         -135485.19    
     94200   297.19822      13.559989      13.43805       57.603806      26.433198      20.654989      31450.377      0.942         -133826.68    
     94300   308.2501       13.56575       13.415312      57.633468      26.552186      20.652128      31603.839      0.943         -133883.54    
     94400   306.14014      13.382118      13.579014      57.66313       26.296362      20.735116      31441.29       0.944         -132071.23    
     94500   296.51888      13.668057      13.564396      57.692792      26.038927      20.896866      31392.492      0.945         -134893.23    
     94600   300.42959      13.754397      13.663802      57.722454      25.938394      20.956134      31376.106      0.946         -135745.35    
     94700   307.25686      13.727676      13.750573      57.752116      26.103281      20.864047      31452.963      0.947         -135481.63    
     94800   298.56166      13.527571      13.686727      57.781778      25.996488      20.991138      31531.277      0.948         -133506.74    
     94900   298.41784      13.885162      13.711925      57.811441      25.930047      21.072404      31588.659      0.949         -137035.89    
     95000   303.81155      13.726019      13.772969      57.841103      25.951764      20.828254      31264.848      0.95          -135465.28    
     95100   302.75474      13.967768      13.910637      57.870765      26.031688      20.816864      31360.059      0.951         -137851.15    
     95200   305.25692      14.210873      13.971191      57.900427      26.034619      20.697576      31199.848      0.952         -140250.41    
     95300   301.8798       13.915779      13.973624      57.930089      26.053281      20.813645      31413.387      0.953         -137338.06    
     95400   297.66378      14.072196      14.062703      57.959751      25.98926       20.681746      31153.556      0.954         -138881.78    
     95500   298.75336      14.11916       13.960237      57.989413      25.925282      20.824005      31306.64       0.955         -139345.28    
     95600   303.71951      14.222639      14.087738      58.019075      26.323675      20.624043      31498.591      0.956         -140366.53    
     95700   293.69865      14.048623      14.057993      58.048737      26.116363      20.827589      31575.08       0.957         -138649.13    
     95800   303.27462      14.082896      14.110629      58.0784        26.199516      20.722741      31532.261      0.958         -138987.38    
     95900   302.54749      13.967326      14.018038      58.108062      26.154905      20.866422      31713.014      0.959         -137846.79    
     96000   302.63187      13.975951      14.02364       58.137724      26.074173      20.825956      31569.923      0.96          -137931.91    
     96100   295.88924      14.277694      14.256285      58.167386      26.056554      20.800096      31525.492      0.961         -140909.88    
     96200   294.11809      14.309775      14.314127      58.197048      26.028361      20.85105       31584.624      0.962         -141226.5     
     96300   302.59865      14.070739      14.299151      58.22671       26.227933      20.70865       31625.551      0.963         -138867.4     
     96400   295.02204      14.365994      14.248817      58.256372      26.128148      20.8037        31665.959      0.964         -141781.34    
     96500   296.77336      14.254919      14.326435      58.286034      26.183583      20.819819      31773.901      0.965         -140685.11    
     96600   296.87321      14.288108      14.286353      58.315696      26.308711      20.77664       31875.746      0.966         -141012.66    
     96700   296.73831      14.459252      14.364896      58.345358      26.263614      20.739114      31779.788      0.967         -142701.72    
     96800   299.19708      14.509981      14.422374      58.375021      26.247693      20.649149      31638.824      0.968         -143202.38    
     96900   302.0466       14.525023      14.477467      58.404683      26.155926      20.726951      31663.083      0.969         -143350.83    
     97000   291.89368      14.675223      14.562985      58.434345      26.288926      20.701839      31801.673      0.97          -144833.19    
     97100   302.75667      14.625652      14.631522      58.464007      26.3011        20.561768      31617.167      0.971         -144343.96    
     97200   302.76421      14.554065      14.673293      58.493669      26.142458      20.668381      31605.432      0.972         -143637.45    
     97300   298.35996      14.591945      14.704132      58.523331      26.275019      20.572918      31635.01       0.973         -144011.3     
     97400   298.25979      14.680685      14.71865       58.552993      26.182335      20.588497      31563.279      0.974         -144887.1     
     97500   300.75824      14.423117      14.641188      58.582655      26.231971      20.886754      32097.48       0.975         -142345.1     
     97600   295.0827       14.571532      14.655414      58.612317      26.061862      20.865371      31872.816      0.976         -143809.84    
     97700   302.16935      14.535014      14.637983      58.641979      26.004305      20.793023      31708.194      0.977         -143449.44    
     97800   306.04416      14.874078      14.843462      58.671642      25.9812        20.760815      31646.948      0.978         -146795.73    
     97900   299.92227      14.640974      14.865419      58.701304      26.029574      20.772311      31739.467      0.979         -144495.18    
     98000   299.14188      14.85712       14.963387      58.730966      25.991811      20.72797       31641.747      0.98          -146628.37    
     98100   309.83413      15.039738      15.128326      58.760628      25.896418      20.712931      31518.656      0.981         -148430.68    
     98200   294.65536      15.394935      15.168047      58.79029       25.874534      20.637537      31393.23       0.982         -151936.2     
     98300   301.32766      15.127034      15.18805       58.819952      25.969647      20.654739      31550.803      0.983         -149292.22    
     98400   302.57202      15.160313      15.154097      58.849614      26.150412      20.699665      31855.576      0.984         -149620.66    
     98500   303.81286      15.020327      15.069501      58.879276      26.128266      20.758082      31934.512      0.985         -148239.11    
     98600   299.74451      15.278612      15.130085      58.908938      25.824448      20.821904      31676.172      0.986         -150788.17    
     98700   294.82141      15.31262       15.214392      58.938601      26.069701      20.647734      31725.484      0.987         -151123.81    
     98800   298.68721      15.275605      15.321486      58.968263      26.229314      20.7411        32080.199      0.988         -150758.5     
     98900   297.24584      15.168882      15.132787      58.997925      26.337257      20.695088      32156.927      0.989         -149705.22    
     99000   293.66499      15.103583      15.119831      59.027587      26.080087      20.741822      31930.885      0.99          -149060.77    
     99100   305.97519      15.175756      15.260469      59.057249      25.908922      20.869286      31932.296      0.991         -149773.06    
     99200   296.97983      15.40802       15.381338      59.086911      25.853345      20.902         31929.776      0.992         -152065.33    
     99300   296.35516      15.248482      15.356081      59.116573      25.874138      20.886306      31947.492      0.993         -150490.82    
     99400   298.8381       15.379606      15.39761       59.146235      26.067783      20.677904      31881.424      0.994         -151784.91    
     99500   301.20666      15.469139      15.47046       59.175897      25.981548      20.706945      31836.542      0.995         -152668.54    
     99600   296.78156      15.669056      15.481808      59.205559      25.85384       20.822489      31872.798      0.996         -154641.56    
     99700   299.80983      15.779664      15.673146      59.235222      25.807064      20.871753      31906.381      0.997         -155733.18    
     99800   293.28052      15.343887      15.527348      59.264884      25.914989      20.878522      32066.252      0.998         -151432.39    
     99900   296.81157      15.704827      15.687623      59.294546      25.955165      20.787411      31991.821      0.999         -154994.59    
    100000   302.90662      15.512665      15.674677      59.324208      26.125009      20.712145      32100.624      1             -153098.1     
Loop time of 868.797 on 4 procs for 100000 steps with 2988 atoms

Performance: 9.945 ns/day, 2.413 hours/ns, 115.102 timesteps/s
266.8% CPU use with 1 MPI tasks x 4 OpenMP threads

MPI task timing breakdown:
Section |  min time  |  avg time  |  max time  |%varavg| %total
---------------------------------------------------------------
Pair    | 594.01     | 594.01     | 594.01     |   0.0 | 68.37
Bond    | 57.835     | 57.835     | 57.835     |   0.0 |  6.66
Neigh   | 107.27     | 107.27     | 107.27     |   0.0 | 12.35
Comm    | 14.427     | 14.427     | 14.427     |   0.0 |  1.66
Output  | 0.53342    | 0.53342    | 0.53342    |   0.0 |  0.06
Modify  | 93.149     | 93.149     | 93.149     |   0.0 | 10.72
Other   |            | 1.563      |            |       |  0.18

Nlocal:           2988 ave        2988 max        2988 min
Histogram: 1 0 0 0 0 0 0 0 0 0
Nghost:          13891 ave       13891 max       13891 min
Histogram: 1 0 0 0 0 0 0 0 0 0
Neighs:    1.00519e+06 ave 1.00519e+06 max 1.00519e+06 min
Histogram: 1 0 0 0 0 0 0 0 0 0

Total # of neighbors = 1005192
Ave neighs/atom = 336.40964
Ave special neighs/atom = 12.156627
Neighbor list builds = 5017
Dangerous builds = 0
unfix 1
unfix 2
unfix def1

print "All done"
All done
Total wall time: 0:14:29
