LAMMPS (15 Sep 2022)
OMP_NUM_THREADS environment is not set. Defaulting to 1 thread. (src/comm.cpp:98)
  using 1 OpenMP thread(s) per MPI task
Loaded 1 plugins from C:\Users\IIT\AppData\Local\LAMMPS 64-bit 15Sep2022\plugins
package omp 0
using multi-threaded neighbor list subroutines
package omp 8
set 8 OpenMP thread(s) per MPI task
using multi-threaded neighbor list subroutines
# Initialization
log MSD_link_win.lammps
