LAMMPS data file via write_data, version 15 Sep 2022, timestep = 1200086

6501 atoms
23 atom types
6594 bonds
25 bond types
12319 angles
47 angle types
19572 dihedrals
60 dihedral types

0.21228065235460036 38.96969434764539 xlo xhi
0.2056406523545995 38.9630543476454 ylo yhi
0.2052346523545978 38.962648347645384 zlo zhi

Masses

1 1.00794
2 1.00794
3 12.0107
4 12.0107
5 1.00794
6 1.008
7 1.00794
8 1.00794
9 1.00794
10 1.00794
11 15.999
12 15.9994
13 15.9994
14 28.085501
15 12.0107
16 12.0107
17 1.00794
18 15.9994
19 15.9994
20 12.0107
21 12.0107
22 1.00794
23 15.9994

Pair Coeffs # lj/cut/coul/cut/omp

1 0.038 2.44997
2 0.038 2.44997
3 0.039 3.87541
4 0.039 3.87541
5 0.038 2.44997
6 0 1
7 0.038 2.44997
8 0.038 2.44997
9 0 0
10 0.038 2.44997
11 0.1521 3.1507
12 0.228 2.85978
13 0.228 2.85978
14 0.04 4.05343
15 0.148 3.61705
16 0.039 3.87541
17 0.038 2.44997
18 0.228 2.85978
19 0.228 2.85978
20 0.148 3.61705
21 0.148 3.61705
22 0 0
23 0.228 2.85978

Bond Coeffs # harmonic/omp

1 340.618 1.105
2 340.618 1.105
3 322.716 1.526
4 340.618 1.105
5 340.618 1.105
6 340.618 1.105
7 384 1.42
8 384 1.42
9 540.634 0.96
10 450 0.9572
11 540.634 0.96
12 392.8 1.665
13 283.092 1.52
14 340.618 1.105
15 615.322 1.23
16 322.716 1.526
17 340.618 1.105
18 283.092 1.52
19 283.092 1.52
20 340.618 1.105
21 340.618 1.105
22 384 1.42
23 384 1.42
24 384 1.42
25 540.634 0.96

Angle Coeffs # harmonic/omp

1 39.5 106.4
2 44.4 110
3 39.5 106.4
4 44.4 110
5 39.5 106.4
6 46.6 110.5
7 44.4 110
8 44.4 110
9 70 109.5
10 70 109.5
11 46.6 110.5
12 44.4 110
13 58.5 106
14 60 109.5
15 60 109.5
16 33.3 113.4
17 55 104.52
18 39.5 106.4
19 57 109.5
20 57 109.5
21 57 109.5
22 57 109.5
23 42.3 113.1
24 31.1 149.8
25 46.6 110.5
26 45 109.5
27 50 120
28 68 120
29 46.6 110.5
30 44.4 110
31 46.6 110.5
32 46.6 110.5
33 50 120
34 70 109.5
35 70 109.5
36 44.4 110
37 70 109.5
38 55 120
39 39.5 106.4
40 44.4 110
41 44.4 110
42 57 109.5
43 57 109.5
44 57 109.5
45 70 109.5
46 70 109.5
47 58.5 106

Dihedral Coeffs # harmonic/omp

1 0.158 1 3
2 0.158 1 3
3 0.158 1 3
4 0.158 1 3
5 0.158 1 3
6 0.158 1 3
7 0.158 1 3
8 0.158 1 3
9 0.158 1 3
10 0.13 1 3
11 0.13 1 3
12 0.13 1 3
13 0.158 1 3
14 0.158 1 3
15 0.158 1 3
16 0.158 1 3
17 0.158 1 3
18 0.13 1 3
19 0.13 1 3
20 0.13 1 3
21 0.13 1 3
22 0.13 1 3
23 0.13 1 3
24 1 1 3
25 0.13 1 3
26 0.13 1 3
27 0.13 1 3
28 0.13 1 3
29 0.13 1 3
30 0.158 1 3
31 0.158 1 3
32 0.158 1 3
33 0.158 1 3
34 0.158 1 3
35 0.3 1 3
36 0.158 1 3
37 0.158 1 3
38 0.158 1 3
39 0.158 1 3
40 0.158 1 3
41 0.158 1 3
42 0.158 1 3
43 0.158 1 3
44 0.158 1 3
45 0.158 1 3
46 0.13 1 3
47 0 1 0
48 0 1 0
49 0.158 1 3
50 0.158 1 3
51 0.158 1 3
52 0.158 1 3
53 0.158 1 3
54 0.158 1 3
55 0.158 1 3
56 0.158 1 3
57 0.13 1 3
58 0 1 0
59 0 1 0
60 0.13 1 3

Atoms # full

3792 6 10 0.140578 3.712858809389792 2.4506447789202843 4.743268140026352 0 0 0
3793 6 3 -0.038979 3.6503822511444595 2.5338831952668164 3.6272627613036863 0 0 0
3794 6 4 -0.07906100000000001 5.049468682967007 3.1869167305206134 3.0708593897845833 0 0 0
3795 6 1 0.139617 2.8421332810369813 3.238265545637409 3.3239997239848624 0 0 0
3796 6 7 0.155189 4.9500068807165585 4.2910572631361115 2.9593865282534773 0 0 0
3787 6 4 -0.07502499999999999 3.3181313487032815 1.1448993903548166 3.011208988874472 0 1 0
3785 6 10 0.134246 1.1964515024506917 1.1096553627655419 3.4598875647999674 0 1 0
3797 6 12 -0.400322 5.312183860724533 2.6609808095053396 1.751300592021943 0 0 0
3804 6 12 -0.415288 5.977504893569267 5.185235565637061 4.903318134637632 0 0 0
3783 6 12 -0.391877 2.0828767093195317 1.0375168857500738 5.97174439394125 0 1 0
3545 6 12 -0.410838 1.1632701222089463 4.795259857736131 1.8323497190968443 1 0 0
3801 6 4 -0.081896 6.3581725936224815 3.7723725407200455 5.175941170281165 0 0 0
3798 6 9 0.14359 5.967463801060576 3.137102497972098 1.2151964659256735 0 0 0
3809 6 1 0.13332 4.873159356205437 2.597673270103395 6.350057436789091 0 0 0
3807 6 3 -0.056033 5.745092126947121 3.2070894802162333 6.519746097910234 0 0 0
3538 6 12 -0.397792 2.8646146460193265 6.000276394929658 3.850262964397779 1 0 0
3805 6 9 0.130357 6.179529153163006 5.361424294310983 3.99000459995716 0 0 0
3540 6 10 0.128836 3.8266307516492652 5.523107297174316 1.3748822182474023 0 0 0
3800 6 3 -0.054799 6.271577270226995 2.858562269518094 3.9146592853269406 0 0 0
3802 6 1 0.133065 6.238036291009856 1.7574264141096458 4.295661052414795 0 0 0
3816 6 1 0.131765 3.7661223208651347 5.065934202439065 6.548664231910285 0 0 0
3541 6 3 -0.056187 2.98957404612081 6.27251340881939 1.3707634157677988 0 0 0
3542 6 4 -0.089393 1.866784957245288 5.438262654769382 0.7497461444773535 0 0 0
3546 6 9 0.138857 0.304802774913907 5.2114134381407125 1.8602726127320168 1 0 0
3539 6 9 0.15463 3.2582290823935196 6.531150148732432 4.534714665063176 1 0 0
3544 6 7 0.149063 1.1264600734762205 6.165884434589532 0.2989559488261051 0 0 0
3789 6 7 0.159284 2.9419941612950757 1.3435194186022312 1.931161117474865 0 1 0
3786 6 3 -0.049053 2.086542360742948 0.48009726989464846 3.6437491293581297 0 1 0
3791 6 9 0.15351 5.111370780569567 0.9488904919398716 2.7521392244140674 0 1 0
3790 6 12 -0.389139 4.473396521778008 0.33582800170809396 2.89852607005245 0 0 0
3566 6 12 -0.40719 1.4732018657354573 0.36737591366332134 0.44117406994553376 0 0 1
3799 6 10 0.136986 7.201640917861871 2.983923207400268 3.20364492473182 0 0 0
3803 6 7 0.149505 7.365849398240717 3.676894210200606 5.486553523159141 0 0 0
3323 5 4 -0.081959 12.736940077535953 2.332621657669407 4.678292520665717 0 0 0
3325 5 7 0.139124 12.353894648546488 1.7900049363672135 3.772823298761197 0 0 0
3333 5 12 -0.414826 9.885384400928787 3.1176233166055183 3.7422651812494347 0 0 0
3334 5 9 0.149231 10.676532575144636 2.775633081649029 3.2334965004410874 0 0 0
3335 5 10 0.125183 11.124934022628926 5.294986715649315 4.50707551364746 0 0 0
4307 7 4 -0.08227 11.353277383441204 5.496366442075689 1.4686576070966995 0 0 0
4309 7 7 0.154655 11.647631752742402 4.404956757273024 1.58718806996054 0 0 0
3336 5 3 -0.06460299999999999 10.602552377974225 4.85174806416113 5.394704223038038 0 0 0
3329 5 3 -0.060785 11.470797477309116 2.4485069252491756 5.569325650680011 0 0 0
3330 5 4 -0.093468 10.33650734891165 3.373673255924069 5.09573620225042 0 0 0
4313 7 3 -0.046172 9.811531112782152 5.669827066902986 1.3627034009126682 0 0 0
3339 5 7 0.144391 8.785926577432457 5.535719343533359 4.677618569633173 0 0 0
4312 7 10 0.13577 9.281301950149683 5.375430406515832 2.3362705900489433 0 0 0
3337 5 4 -0.09392200000000001 9.42781535519162 5.820076279112839 5.563056480369301 0 0 0
4310 7 12 -0.397412 11.933526600820437 6.314201154591975 2.4988560233458577 0 0 0
3699 6 12 -0.400833 8.372066879550575 0.8230955477241759 5.734718962203022 0 1 0
3331 5 1 0.128638 11.15306950047203 1.4725255663374528 5.7368803613259844 0 0 0
3332 5 7 0.149066 9.61457572825339 3.041535898837794 5.739561450182285 0 0 0
4311 7 9 0.154569 12.05207889389895 5.7112288334131245 3.223240929570126 0 0 0
3700 6 9 0.145665 7.92162888295441 0.5921998135047956 4.929258188140585 0 1 0
3340 5 12 -0.402263 8.627785780642768 5.6445026474347735 6.706537918240145 0 0 0
3338 5 1 0.126986 11.24566007394957 4.986959032109682 6.262323323775701 0 0 0
3326 5 12 -0.400429 13.37557501518198 3.521180429096218 4.281267980155181 0 0 0
3341 5 9 0.148646 7.82999027200982 6.071767121591919 6.556965684876397 0 0 0
4315 7 1 0.137063 9.487313467338831 5.018202376722216 0.5321312405473912 0 0 0
3327 5 9 0.143924 14.102834102832079 3.1757224037575944 3.9096256044126414 0 0 0
3324 5 1 0.128047 13.23779582504681 1.1014269129959886 6.266274126271836 0 0 0
3205 5 1 0.136476 13.228773046403973 5.923058661292485 5.145042047642171 0 0 0
3322 5 3 -0.061014 13.784020977866492 1.4424398210158422 5.422035532785766 0 0 0
3321 5 10 0.122611 14.651398191090239 2.0607802509092465 5.720727182663275 0 0 0
5691 5 17 0.147097 15.383819723671419 2.013142432046072 2.881552041270846 0 0 0
3097 5 10 0.13727 18.62069045175691 2.4512668512003457 1.1973925579215963 0 0 0
3098 5 3 -0.054778 18.91953293729929 2.9202621482190634 2.1761626658798523 0 0 0
3099 5 4 -0.083577 17.695134288698746 2.9470377715703244 3.060328960973643 0 0 0
3101 5 7 0.152505 16.806255811959293 3.4639545590522305 2.6150636445970292 0 0 0
3102 5 19 -0.416681 17.406500998713412 1.6048879561864855 3.200018278548066 0 0 0
3105 5 3 -0.057305 17.85048359803706 3.678518513064371 4.421824619871215 0 0 0
3107 5 1 0.131141 16.97790981751437 3.3714027218595795 5.11928302043842 0 0 0
5685 5 21 -0.048988 16.06634749610945 1.1892880333093676 3.018487667886466 0 0 0
3104 5 10 0.133514 18.720942055911205 3.257471103230924 4.93736162419454 0 0 0
3106 5 4 -0.085507 17.84467287884459 5.236401105582244 4.415357440277196 0 0 0
3109 5 12 -0.402649 16.943995691271866 5.628318768691342 3.4577174258517376 0 0 0
4303 7 12 -0.413677 14.248021046907166 5.161828498694096 1.0744327248411647 0 0 0
3108 5 7 0.15072 17.47348025766397 5.556320653094272 5.413658314783567 0 0 0
3202 5 10 0.136049 15.033443638471839 5.765476600825425 4.88982991948876 0 0 0
3100 5 1 0.133052 19.061336490424836 3.9673518402286527 1.758610098131446 0 0 0
3112 5 3 -0.053846 19.154075607894505 6.005523600840299 4.192186604067072 0 0 0
3110 5 9 0.144748 17.445875180547578 6.195154546364043 2.8825050152036487 0 0 0
4304 7 9 0.134874 14.02348283819619 5.421815871829743 1.9084331672587191 0 0 0
6614 2 5 0.273684 14.813216544017187 2.4970486814741077 0.5440748875804045 0 0 1
3203 5 3 -0.048668 14.259234937469616 6.281266978405087 5.481201412996275 0 0 0
3319 5 19 -0.397683 15.693469740344888 0.40887418361116956 4.12875609391542 0 0 0
3318 5 7 0.150629 13.843649530276503 0.4168605232983769 3.4245544385080158 0 1 0
3316 5 4 -0.081208 14.276305258426959 0.27802588433564707 4.436595183644951 0 1 0
3111 5 10 0.133237 19.666571099356556 5.531046447672085 3.3112489775606635 0 0 0
5687 5 17 0.155305 16.546864118962016 0.5836892583287703 0.8080618147370914 0 0 0
960 2 7 0.163043 19.187210830262394 38.755442147912206 5.615858465108624 0 0 0
5682 5 16 -0.038333 16.086062543389467 0.20996309332703586 1.7833649640904696 0 0 0
3094 5 7 0.153988 19.74261755558403 1.4325844157211165 3.5263676539339017 0 0 0
3114 5 1 0.134234 19.978557025795595 5.749837167389485 4.918809830954585 0 0 0
3092 5 4 -0.079125 20.019595756188117 2.032611325868495 2.730012984506274 0 0 0
3090 5 10 0.14018 21.109583150497112 3.5082298403974046 4.075410825174698 0 0 0
3091 5 3 -0.039421 21.21706294709155 2.7978869320538693 3.230329413072561 0 0 0
3093 5 1 0.139516 21.896767070956304 1.999843753821347 3.6240050052289865 0 0 0
3081 5 12 -0.392571 24.03779516289487 3.085546261467238 4.340113134353995 0 0 0
3082 5 9 0.158349 23.24175704557655 3.584540255186201 4.44589783598984 0 0 0
3078 5 4 -0.074089 24.461955036664925 3.5024931044904895 3.0761888151819736 0 0 0
3080 5 7 0.158321 24.522936253406534 4.635022010033225 3.089775768424527 0 0 0
3084 5 3 -0.049815 23.38054256220194 3.207574156096353 1.9851813295081242 0 0 0
3085 5 4 -0.0755 21.94816040606059 3.722651834570724 2.2437068729028447 0 0 0
3088 5 12 -0.389754 21.938805129147774 5.054778038395553 2.6464522183342285 0 0 0
3087 5 7 0.159217 21.41135153321665 3.5476042088302884 1.3041699541369733 0 0 0
3089 5 9 0.153138 21.64169005480669 5.490772703756271 1.836940197706311 0 0 0
3083 5 10 0.13369 23.320660619105002 2.1266560149795657 1.8493554119121658 0 0 0
3086 5 1 0.134499 23.714859850488054 3.6162490976297437 0.9712042707555032 0 0 0
3095 5 12 -0.400558 20.42679153532237 1.1232390011633302 1.6223237701721103 0 0 0
3077 5 3 -0.056954 25.78703350362257 2.898991732845956 2.7961320121217903 0 0 0
3076 5 10 0.124338 25.680421121594776 1.7993151501638585 2.7042642802732133 0 0 0
956 2 10 0.132666 21.54471516229159 1.2136968969941928 6.133480093432294 0 0 0
3030 5 1 0.127791 24.638298070602513 6.788155430272729 1.3640153027107216 0 0 0
2911 5 1 0.137055 25.330069318619344 1.0637078139694465 0.48528764197544805 0 0 1
945 2 1 0.128869 25.94312443499095 38.86490922894802 5.815252419496508 0 0 0
3096 5 9 0.143496 20.503691513931418 0.26068982909016436 1.989441596686371 0 0 0
3027 5 10 0.128918 25.74656507782617 5.762887338051504 0.4909988807041002 0 0 0
1057 2 1 0.131103 23.82573360411336 3.6710652325552915 6.517757298946518 0 0 0
3079 5 1 0.125291 26.09870482047874 3.1672505115255922 1.7319093998837929 0 0 0
3075 5 9 0.140932 27.14137148954724 4.95095599852649 4.469376857554697 0 0 0
3073 5 7 0.142572 26.46641830161763 3.072924341625316 4.787296282102135 0 0 0
3071 5 4 -0.105167 26.87163564491142 3.2673177142746326 3.7842958486669565 0 0 0
3074 5 12 -0.414584 27.06734558700807 4.618456127946681 3.5498981285831515 0 0 0
3070 5 3 -0.06064 28.105354232847688 2.405130448535844 3.468945127540611 0 0 0
3064 5 4 -0.08115700000000001 29.153361416264378 2.879017874920634 4.406386534259028 0 0 0
3066 5 7 0.160225 29.372605267792824 3.984414566883908 4.130675828218098 0 0 0
3049 5 3 -0.06619999999999999 31.507022530760995 6.045001437608185 3.5101658588872473 0 0 0
3057 5 4 -0.083345 31.563590634443926 3.1235456529943795 5.010596424516062 0 0 0
3059 5 7 0.154923 30.92814140409122 3.9048054727880666 5.569698483222376 0 0 0
3063 5 3 -0.053414 30.548518224329257 2.212416740246621 4.329640991577228 0 0 0
3065 5 1 0.135896 30.738249902737646 1.9529170099108244 3.279139256737652 0 0 0
3048 5 10 0.130268 30.69100140868005 5.836723553408896 4.144486128652913 0 0 0
3072 5 1 0.129942 28.367420549712687 2.43515869259428 2.346266346245405 0 0 0
3062 5 10 0.133614 30.46373893895989 1.2664104410076424 4.943245880320514 0 0 0
3069 5 10 0.127053 28.004636540010228 1.328070558631191 3.744262805244629 0 0 0
3067 5 12 -0.406466 28.671065005022207 2.872028891637754 5.799183732491492 0 0 0
3045 5 7 0.148657 30.499739314490267 6.29276150290537 1.6670997035193516 0 0 0
751 2 12 -0.396598 31.46181737904295 0.7714461491197909 1.2356582078998202 0 0 1
3053 5 12 -0.402648 31.140389109122495 4.083268972152849 1.9881056604763192 0 0 0
3054 5 9 0.144022 31.42445199629848 4.524844873849182 1.1195392893568317 0 0 0
3050 5 4 -0.087032 32.02679050774333 4.692737666357495 2.9249522925450178 0 0 0
3051 5 1 0.131191 32.298941961342635 6.586494024726569 4.063300797442983 0 0 0
752 2 9 0.145598 32.18211568755507 1.3676351969942406 1.3756179148875496 0 1 0
3060 5 12 -0.406729 32.31249405451373 2.4091131052671844 5.986925580013691 0 0 0
3068 5 9 0.13829 28.162141663687493 2.0484602506134983 5.914541809165294 0 0 0
2928 5 9 0.156789 28.80572424746121 3.34758785364078 38.650726590420255 0 0 0
3038 5 7 0.148096 28.77087868644909 6.909527596511448 3.7502076836332088 0 0 0
3061 5 9 0.140785 32.344118542365436 2.909643294488331 6.7815391037448025 0 0 0
882 2 1 0.127738 38.84858812074158 2.978683760243038 4.917203134746112 0 0 0
3056 5 3 -0.059439 32.57047197067458 3.7875078363357013 4.00958130253918 0 0 0
3052 5 7 0.147213 32.92321796163632 4.950164282921173 2.3567469156602976 0 0 0
876 2 7 0.153652 38.37169983272203 3.159608062854497 2.5480053481026697 0 0 0
3058 5 1 0.127314 33.10631794534332 2.9330243352855505 3.6042724781421294 0 0 0
879 2 10 0.129009 38.20283099531221 4.54937060095577 4.593861707651672 0 0 0
875 2 1 0.138586 36.278614733541 4.813037745118322 3.202776425535788 0 0 0
3055 5 10 0.131539 33.239921825662805 4.3576187714273225 4.655627902416279 0 0 0
867 2 4 -0.075697 36.57017006145433 4.301639191544558 1.0706944817042185 0 0 0
873 2 3 -0.051123 36.34572828583785 3.956634522594017 2.5799753258607883 0 0 0
872 2 10 0.131592 35.39580612380546 3.434898498753131 2.7154770172426628 0 0 0
874 2 4 -0.0833 37.43890457110489 3.103653349191179 3.170251880841352 0 0 0
877 2 12 -0.399233 37.08141261133833 1.701662821073413 3.035273574935672 0 0 0
878 2 9 0.139404 36.93722454044722 1.5511752056560735 2.13720285558236 0 0 0
880 2 3 -0.053492 37.900491667738876 3.4828854246059424 4.647689915847863 0 0 0
884 2 12 -0.402183 35.58054615270615 3.5360226162372013 5.423793957885561 0 0 0
881 2 4 -0.079897 36.898119261186075 3.263332369367931 5.763688141756194 0 0 0
869 2 7 0.156762 37.55720124216206 4.624445994019438 0.9211159580523871 0 0 0
883 2 7 0.151639 36.940450765978 2.207459615294499 6.0064278772616655 0 0 0
885 2 9 0.147901 35.46828404153126 2.780927641012192 4.84950697844664 0 0 0
866 2 3 -0.047728 35.59419889707665 5.336773667457784 0.5416742965353072 0 0 0
890 2 7 0.145273 36.93835936182045 5.628980010730557 5.800457592262897 0 0 0
862 2 7 0.152941 34.76888544673423 6.644878147273529 1.9571780189277779 0 0 0
868 2 1 0.130245 34.58458010248808 4.977418326342779 0.49884182916657205 0 0 0
860 2 4 -0.078016 35.712151775223944 6.673791341552503 1.3323971901030056 0 0 0
864 2 9 0.155827 37.57400303269591 6.501958526463096 1.5332149991791792 0 0 0
3593 6 7 0.148543 34.96458837793353 0.6438709112592347 5.581763205776069 0 1 0
759 2 9 0.143973 35.5023938869679 1.2236417801532515 38.87230026283884 0 1 0
870 2 12 -0.396912 36.200593797901895 3.1319415672623054 0.3432950822780053 -1 0 0
3535 6 4 -0.0873 2.905937479833871 6.907419673535024 2.7645214494770336 1 0 0
3537 6 7 0.154785 3.769046590221215 7.599626378093431 2.802106484678132 1 0 0
3531 6 12 -0.406327 2.411732434712481 8.60048695768009 5.0509919750776415 1 0 0
3534 6 3 -0.056548 1.691309450950107 7.766805749019381 2.795103495098367 1 0 0
3528 6 4 -0.076807 1.3803113716710866 8.109925150988621 4.258808666870004 1 0 0
4802 7 10 0.128738 2.407431870840921 12.852978996378873 4.3286897097553325 0 0 0
4328 7 4 -0.078732 5.508588237722468 10.1770940121755 0.8973095248638725 0 0 0
4331 7 12 -0.395097 5.3297425057233 10.22341976916363 2.3051840566920374 0 0 0
3532 6 9 0.145047 2.35359225203121 8.201496830716579 5.917979010511501 1 0 0
3533 6 10 0.13179 1.9267709119242302 8.660686355126607 2.192252740262404 0 0 0
3530 6 7 0.157601 1.001497405901885 7.2905327828318 4.833840382182171 1 0 0
4333 7 10 0.132283 3.8667906070848397 11.521821233522823 0.6660405504219862 0 0 0
3522 6 1 0.132295 1.303049078863888 10.512944162657748 6.489741599963146 1 0 0
3820 6 10 0.12939 4.191724730503493 7.418844881286815 6.349614070237531 0 0 0
4332 7 9 0.156801 5.659101702987415 11.089870894712345 2.6306981864602195 0 0 0
4809 7 10 0.129322 38.869036786167804 12.744878484319342 5.000706363340373 0 0 0
4326 7 10 0.125817 5.66425570761139 8.154256661466613 1.1313365526458306 0 0 0
4336 7 1 0.129494 3.3853704971704985 9.84827766470521 0.5168384396672105 0 0 1
4330 7 7 0.149716 6.283308172387864 11.057126393567332 0.6988448155498076 0 0 1
3526 6 10 0.12895 0.8092103936624686 10.099994210091173 3.9490889637173474 0 0 0
3536 6 1 0.128814 0.8179062255355556 7.3402495701408474 2.316334231615288 0 0 0
3827 6 10 0.127429 5.436020619676525 9.719031230820702 6.559847112150876 0 0 0
3543 6 1 0.131774 3.292666203451226 6.956790334071335 0.5957711156611134 0 0 0
4327 7 3 -0.059822 6.185915845525044 8.90606757448809 0.5922351794830345 0 0 0
4334 7 3 -0.053362 4.208990177160139 10.50582566231323 0.23357520580897703 0 0 0
3527 6 3 -0.055641 0.27280626860439866 9.208174927261146 4.25082757701872 1 0 0
4319 7 10 0.13153 7.544621503283722 6.878935966304454 2.014857305049572 0 0 0
4314 7 4 -0.08268499999999999 9.439838767234404 7.072239673436929 1.0581791332516097 0 0 0
4318 7 9 0.152178 10.801261734400386 7.550286948051257 2.285681914524458 0 0 0
4320 7 3 -0.052069 7.963584068243762 7.332077941931676 1.1251977571413032 0 0 0
4317 7 12 -0.397824 10.079418520802765 8.020607880401396 1.9147982076621386 0 0 0
3348 5 9 0.149457 7.292665988080459 7.200411376463824 5.295303459152255 0 0 0
3353 5 7 0.156239 7.388818808365212 10.208899079378325 4.185674668303526 0 0 0
4323 7 7 0.154842 7.737539818352208 9.26796462107433 2.0761056676898844 0 0 0
3347 5 12 -0.407465 7.633439915260387 8.04546596665655 4.943124738930963 0 0 0
3342 5 10 0.12519 10.360056989834737 7.426120402989822 4.435980676666867 0 0 0
3344 5 4 -0.085728 8.856112670247661 8.343649982031986 5.584994923826508 0 0 0
3351 5 4 -0.08387 8.20332004677304 10.627849047928803 4.873145462685567 0 0 0
3343 5 3 -0.053866 9.88044477991701 7.27069962283251 5.422883725404448 0 0 0
4321 7 4 -0.085316 7.617223600409795 8.781908987499596 1.0755986183218775 0 0 0
3357 5 3 -0.059251 8.765078500954836 11.948873120545855 4.225597669559895 0 0 0
3349 5 10 0.12263 9.69614074936199 9.486613685890868 3.9056638994546993 0 0 0
3350 5 3 -0.058067 9.308416800410862 9.614732611189158 4.885819453807677 0 0 0
3359 5 1 0.127659 9.493600005024222 11.67285675612376 3.4440644502878786 0 0 0
3183 5 4 -0.090754 12.340838675508436 10.986093849222916 2.589567081542356 0 0 0
3182 5 3 -0.062693 12.257034342544738 10.718167364918699 1.0321248838968713 0 0 0
3191 5 1 0.130644 12.452083181400376 9.764484266683057 4.235988441543686 0 0 0
3189 5 3 -0.058489 12.789693551631943 9.6799262472227 3.1970942836467637 0 0 0
3188 5 10 0.123069 12.220585360385687 8.821876516015818 2.74697539997271 0 0 0
3185 5 7 0.153627 11.347117066772848 11.184086912831416 3.042748014350774 0 0 0
3360 5 7 0.153174 9.770596037941022 12.251353226174064 6.108737619161076 0 0 0
3352 5 1 0.129161 10.162351993898119 9.964349326268183 5.543698265878266 0 0 0
3356 5 10 0.126254 7.863617613352072 12.336246615842276 3.7860110409420207 0 0 0
3184 5 1 0.127732 11.713402093013649 9.79044789549096 0.8915665294066184 0 0 0
3345 5 1 0.125936 10.647923849151194 7.435295195502913 6.202624346216394 0 0 0
3176 5 4 -0.081867 11.493149003599347 11.806248284428772 0.28362025129145185 0 0 1
3179 5 12 -0.404956 10.811283684542948 12.58178858644271 1.2651798248790833 0 0 0
4324 7 12 -0.400366 8.510160738618078 9.341572074876142 38.85189354385277 0 0 -1
3180 5 9 0.141436 9.96361133340458 12.823158817587434 0.9648756783215516 0 0 0
3358 5 4 -0.083624 9.30841488982526 12.864544704710223 5.344509865246638 0 0 0
4360 7 9 0.15697 8.270985167804566 13.4392536307549 0.41688622343936277 0 0 0
3354 5 12 -0.40474 7.727365044575163 10.919437236327301 6.216945113392787 0 0 0
3355 5 9 0.147576 6.820109647225682 10.567389879862251 6.322234087822886 0 0 0
4325 7 9 0.150383 9.395794268155692 9.258221621276968 0.4926509012704018 0 0 0
4322 7 1 0.12726 7.4907059678854315 6.746154381839109 0.303449396085919 0 0 0
3186 5 12 -0.407847 13.192595144836032 12.039340529767697 2.874267570210266 0 0 0
3187 5 9 0.138212 13.990062261206127 11.503175063476112 3.1157821453119974 0 0 0
3200 5 12 -0.400879 13.207984550504122 8.337303209964691 5.815031977384432 0 0 0
3181 5 10 0.131521 13.221718303227515 10.446089787368031 0.5949200720555574 0 0 0
4302 7 7 0.149957 13.679174814985434 7.040668307757337 0.44931329508400886 0 0 0
3192 5 7 0.150933 14.746602544804723 10.157640100677648 3.8977421913398382 0 0 0
3198 5 1 0.131297 14.133127139957196 7.108844929557475 3.3073581253363025 0 0 0
3190 5 4 -0.07965999999999999 14.298571706735995 9.415764464089753 3.21791786153213 0 0 0
3194 5 9 0.149844 15.448685647147 8.769723817741509 1.9433951503039792 0 0 0
3193 5 12 -0.405539 14.805931698658934 9.423187079763022 1.9253190937047069 0 0 0
3117 5 9 0.136561 17.243192625803825 8.348515689560587 4.085307769855222 0 0 0
3196 5 3 -0.061633 14.65520004525931 7.9798008084392285 3.831202858805909 0 0 0
3195 5 10 0.129791 15.641181488060342 7.709616089747825 3.4700676585987407 0 0 0
3115 5 7 0.1602 18.66317577178036 7.709584679016956 3.0135495652988533 0 0 0
3116 5 12 -0.412253 17.864088354014243 8.061089587180694 4.756972694409337 0 0 0
5768 11 16 -0.034318 16.060593312249903 12.264435359615259 0.7145383509721678 0 0 0
5774 11 17 0.178228 16.68719141658729 11.582885430624643 2.579680529517248 0 0 0
3197 5 4 -0.071905 14.44312552650808 7.815439023023697 5.314412162213041 0 0 0
3199 5 7 0.162987 15.365072384319864 8.184021219148402 5.761997919771143 0 0 0
2355 4 4 -0.083317 16.130375285727172 11.879966737853579 6.310274927971647 0 0 0
3113 5 4 -0.08269799999999999 18.966497033713107 7.5491749223072055 4.033747898855239 0 0 0
5773 11 17 0.178778 17.889637294622435 12.709911211915381 1.96406892999492 0 0 0
2350 4 7 0.147215 18.74273123921789 12.059447274454529 6.149449529682249 0 0 0
3005 5 9 0.151356 18.932563077436498 9.478295118963832 0.9282789969909279 0 0 0
2360 4 10 0.133642 14.085093147929982 11.222809540428338 6.11894744466298 0 0 0
5769 11 16 -0.043694 16.794573349101206 12.574788454776028 2.0292120096672486 0 0 0
2358 4 19 -0.406716 16.07516364674232 12.087499930760092 4.90067288661944 0 0 0
5771 11 17 0.157472 15.021353170447185 12.411003033993373 0.8282315179429545 0 0 0
5770 11 17 0.158494 15.979629161255962 11.19157964501152 0.5647045058257134 0 0 0
3004 5 12 -0.401483 18.139683553968815 9.709313727980197 0.3751637064476026 0 0 0
2357 4 7 0.154947 16.6033919331515 10.874948073185504 6.457460949694185 0 0 0
3123 5 12 -0.410284 19.190280416626713 10.411685477163488 4.705231885147379 0 0 0
3124 5 9 0.143328 18.564999918621304 9.70084808760283 4.795459333020473 0 0 0
2361 4 3 -0.053336 14.730196377838963 11.823953828773279 6.809290288209637 0 0 0
2363 4 1 0.135934 14.287362201924816 12.868386460806283 6.761933949694616 0 0 0
3028 5 3 -0.055652 25.53644592645315 6.812357825193905 0.803219910073338 0 0 0
3012 5 9 0.142406 20.909835935714135 7.459472687293976 1.3275998913115092 0 0 0
3132 5 10 0.129375 19.62347002312241 12.285620649357579 0.5703021547453502 0 0 0
3125 5 10 0.123679 19.63675636999336 10.045101493897581 2.224887458219355 0 0 0
3129 5 7 0.144056 19.66402947919036 12.35316466508314 3.3331905187868993 0 0 0
3032 5 12 -0.401033 25.914015034425038 8.733418772519268 2.3019652131818824 0 0 0
3011 5 12 -0.400609 20.23252524850543 8.024739370110797 0.8936229949214278 0 0 0
3120 5 4 -0.091421 20.38799575155775 9.907428569987237 4.181635157154545 0 0 0
3122 5 7 0.151162 21.192542908844146 10.255084903230077 4.8839469352486535 0 0 0
3119 5 3 -0.059782 20.313339376818263 8.315019586790095 4.1989631994117165 0 0 0
3126 5 3 -0.060507 20.510165330159165 10.460210025392795 2.7645220838670252 0 0 0
3121 5 1 0.126069 20.910179406232842 8.014203479473853 5.1372426131849975 0 0 0
3118 5 10 0.128667 20.855897616893778 7.949415067637766 3.322407668849043 0 0 0
3127 5 4 -0.093377 20.54427433038383 12.027405157895844 2.7262466596040813 0 0 0
3128 5 1 0.125838 21.46197832109109 10.081656997158055 2.3028945602507553 0 0 0
2277 4 3 -0.051223 24.53922921284436 8.943847527364014 5.655510676076743 0 0 0
3133 5 3 -0.054776 20.506822019702305 12.520362331413356 1.1988131424578707 0 0 0
2271 4 4 -0.075761 24.274687319580032 10.160812747994873 4.769093003642525 0 0 0
2274 4 12 -0.396984 23.28847040005886 11.000194284726353 5.379793964032239 0 0 0
3130 5 12 -0.413916 21.742551770854416 12.476982292393618 3.409698133091707 0 0 0
2275 4 9 0.152206 22.95062108329968 11.57540546935977 4.667962370570719 0 0 0
2273 4 7 0.156719 23.993637422901884 9.849746327777629 3.7842035640748817 0 0 0
2276 4 10 0.131529 25.35037539677455 8.282007208209022 5.124023807210374 0 0 0
2279 4 1 0.138529 23.634706262232225 8.331505517223922 5.600196976315359 0 0 0
3017 5 7 0.160198 23.062298840528314 8.088731183800135 0.3296266279122101 0 0 0
3135 5 1 0.125002 21.441340753502732 12.12966923958506 0.6894686758403442 0 0 0
2268 4 9 0.155835 24.07000284247605 12.861929333596496 4.256649317782763 0 0 0
2266 4 7 0.153007 25.033882218758365 11.641910836658688 2.4896709771991983 0 0 0
2264 4 4 -0.07788100000000001 25.602918009053234 12.051312846043768 3.389822922055374 0 0 0
2270 4 3 -0.047699 25.593098038391673 10.900285622795504 4.497876587435942 0 0 0
3131 5 9 0.131662 22.017829948574178 11.694860081863505 3.874648008411454 0 0 0
2269 4 10 0.130585 25.865905836159026 11.38734893779809 5.4182453120159435 0 0 0
3031 5 7 0.150009 26.18594090324168 6.660767695933153 2.7262449926970254 0 0 0
3037 5 1 0.131044 28.232332223472266 6.437653909456625 1.395356260985086 0 0 0
3033 5 9 0.145789 26.329389541246204 9.115200407065252 3.069654451850039 0 0 0
3029 5 4 -0.085926 26.41565851471003 7.409923004976179 1.935333825944487 0 0 0
3043 5 4 -0.089628 30.96098054866679 6.896514389597651 2.400171905636011 0 0 0
1078 2 1 0.128373 29.775053759759526 6.842853679461386 5.889236581741191 0 0 0
3040 5 9 0.144887 28.606185893077125 8.986500785195005 4.486476934112123 0 0 0
2272 4 1 0.130266 26.43929424784746 10.267629000414402 4.408909420176917 0 0 0
2265 4 1 0.131288 26.95887406835982 12.966288213370355 1.8456827708938166 0 0 0
3046 5 12 -0.400414 32.06226119065636 7.261911315979567 1.5437096199677156 0 0 0
3036 5 4 -0.084259 28.703974532042817 7.773381553245085 3.1121123659401486 0 0 0
3039 5 12 -0.402106 28.00585239299606 8.818231472840175 3.789632901241762 0 0 0
3035 5 3 -0.059896 27.9686456598178 7.429386002493558 1.7587843120485385 0 0 0
3034 5 10 0.128112 28.4037562659233 8.07343961821746 0.9686908421931211 0 0 0
3042 5 3 -0.054826 30.155599894219186 8.167213168412975 2.7473378486754347 0 0 0
2262 4 10 0.131266 27.494913772236686 11.502041256700965 2.573926126986271 0 0 0
2263 4 3 -0.053582 27.013352073949346 12.438336612684237 2.8701348487445704 0 0 0
3041 5 10 0.131489 30.724387218980812 8.585609126710592 3.6288755200801495 0 0 0
3044 5 1 0.130515 30.125856987313302 8.936654948326652 1.948507203114201 0 0 0
2253 4 12 -0.392774 29.89560763418213 11.135347284859877 3.7914217853751357 0 0 0
2254 4 9 0.156971 29.079725143895455 11.188331086857733 4.3138567385907285 0 0 0
2243 4 4 -0.082928 31.92933003690478 11.862724671089174 1.9477211598354844 0 0 0
1079 2 7 0.154373 31.05310919814774 8.851726228280386 5.7952676258920315 0 0 0
2260 4 12 -0.391784 27.930432515443623 12.805740364544652 5.177181254811851 0 0 0
2246 4 12 -0.396564 30.706064645430352 11.634453836733297 1.2688786525174243 0 0 0
1088 2 9 0.149886 32.02417100752982 10.63158808361077 5.946854446193555 0 0 0
2247 4 9 0.152647 30.162529735255458 11.393886054124257 1.9915420636937942 0 0 1
2250 4 4 -0.07682899999999999 30.348934059819616 12.420876684332516 3.906941195042823 0 0 0
2257 4 4 -0.07935 27.913337181642298 13.221063718739924 3.795280518583919 0 0 0
2249 4 3 -0.05275 31.75288518311827 12.663083622964804 3.316036366344454 0 0 0