LAMMPS data file via write_data, version 15 Sep 2022, timestep = 10000000

6501 atoms
23 atom types
6594 bonds
25 bond types
12319 angles
47 angle types
19572 dihedrals
60 dihedral types

0.21228065235460036 38.96969434764539 xlo xhi
0.2056406523545995 38.9630543476454 ylo yhi
0.2052346523545978 38.962648347645384 zlo zhi

Masses

1 1.00794
2 1.00794
3 12.0107
4 12.0107
5 1.00794
6 1.008
7 1.00794
8 1.00794
9 1.00794
10 1.00794
11 15.999
12 15.9994
13 15.9994
14 28.085501
15 12.0107
16 12.0107
17 1.00794
18 15.9994
19 15.9994
20 12.0107
21 12.0107
22 1.00794
23 15.9994

Pair Coeffs # lj/cut/omp

1 0.038 2.44997
2 0.038 2.44997
3 0.039 3.87541
4 0.039 3.87541
5 0.038 2.44997
6 0 1
7 0.038 2.44997
8 0.038 2.44997
9 0 0
10 0.038 2.44997
11 0.1521 3.1507
12 0.228 2.85978
13 0.228 2.85978
14 0.04 4.05343
15 0.148 3.61705
16 0.039 3.87541
17 0.038 2.44997
18 0.228 2.85978
19 0.228 2.85978
20 0.148 3.61705
21 0.148 3.61705
22 0 0
23 0.228 2.85978

Bond Coeffs # harmonic/omp

1 340.618 1.105
2 340.618 1.105
3 322.716 1.526
4 340.618 1.105
5 340.618 1.105
6 340.618 1.105
7 384 1.42
8 384 1.42
9 540.634 0.96
10 450 0.9572
11 540.634 0.96
12 392.8 1.665
13 283.092 1.52
14 340.618 1.105
15 615.322 1.23
16 322.716 1.526
17 340.618 1.105
18 283.092 1.52
19 283.092 1.52
20 340.618 1.105
21 340.618 1.105
22 384 1.42
23 384 1.42
24 384 1.42
25 540.634 0.96

Angle Coeffs # harmonic/omp

1 39.5 106.4
2 44.4 110
3 39.5 106.4
4 44.4 110
5 39.5 106.4
6 46.6 110.5
7 44.4 110
8 44.4 110
9 70 109.5
10 70 109.5
11 46.6 110.5
12 44.4 110
13 58.5 106
14 60 109.5
15 60 109.5
16 33.3 113.4
17 55 104.52
18 39.5 106.4
19 57 109.5
20 57 109.5
21 57 109.5
22 57 109.5
23 42.3 113.1
24 31.1 149.8
25 46.6 110.5
26 45 109.5
27 50 120
28 68 120
29 46.6 110.5
30 44.4 110
31 46.6 110.5
32 46.6 110.5
33 50 120
34 70 109.5
35 70 109.5
36 44.4 110
37 70 109.5
38 55 120
39 39.5 106.4
40 44.4 110
41 44.4 110
42 57 109.5
43 57 109.5
44 57 109.5
45 70 109.5
46 70 109.5
47 58.5 106

Dihedral Coeffs # harmonic/omp

1 0.158 1 3
2 0.158 1 3
3 0.158 1 3
4 0.158 1 3
5 0.158 1 3
6 0.158 1 3
7 0.158 1 3
8 0.158 1 3
9 0.158 1 3
10 0.13 1 3
11 0.13 1 3
12 0.13 1 3
13 0.158 1 3
14 0.158 1 3
15 0.158 1 3
16 0.158 1 3
17 0.158 1 3
18 0.13 1 3
19 0.13 1 3
20 0.13 1 3
21 0.13 1 3
22 0.13 1 3
23 0.13 1 3
24 1 1 3
25 0.13 1 3
26 0.13 1 3
27 0.13 1 3
28 0.13 1 3
29 0.13 1 3
30 0.158 1 3
31 0.158 1 3
32 0.158 1 3
33 0.158 1 3
34 0.158 1 3
35 0.3 1 3
36 0.158 1 3
37 0.158 1 3
38 0.158 1 3
39 0.158 1 3
40 0.158 1 3
41 0.158 1 3
42 0.158 1 3
43 0.158 1 3
44 0.158 1 3
45 0.158 1 3
46 0.13 1 3
47 0 1 0
48 0 1 0
49 0.158 1 3
50 0.158 1 3
51 0.158 1 3
52 0.158 1 3
53 0.158 1 3
54 0.158 1 3
55 0.158 1 3
56 0.158 1 3
57 0.13 1 3
58 0 1 0
59 0 1 0
60 0.13 1 3

Atoms # full

3794 6 4 -0.07906100000000001 4.416408825551646 2.1807188347858855 3.1195095818541874 0 0 0
3800 6 3 -0.054799 4.534694337958538 3.3483864847981972 4.098263861734626 0 0 0
3802 6 1 0.133065 3.5633935900061973 4.002596514451544 4.243986606630841 0 0 0
3790 6 12 -0.389139 2.045840626544855 2.167885973727207 5.2029421564339176 0 0 0
3793 6 3 -0.038979 2.9907313264043576 1.5232200174167714 3.0859053825075806 0 0 0
3801 6 4 -0.081896 5.727570896535032 4.331418933854866 3.9466384851944323 0 0 0
3796 6 7 0.155189 4.629293840756252 2.5741669245425274 2.078791782433494 0 0 0
3799 6 10 0.136986 4.683656760690917 2.8944788841957627 5.125156997212559 0 0 0
3797 6 12 -0.400322 5.366759542402267 1.1790061570832118 3.4542675890230727 0 0 0
3787 6 4 -0.07502499999999999 2.5531830790689174 1.0816953769982673 4.47956205182635 0 1 0
3804 6 12 -0.415288 5.660838025921801 4.757989096609867 2.5950926276017268 0 0 0
3807 6 3 -0.056033 5.7796522463222555 5.560170400388449 4.869802211358291 0 0 0
3792 6 10 0.140578 2.295242152588726 2.3233992622152946 2.624118379028841 0 0 0
3805 6 9 0.130357 6.331285323238641 5.403130274249482 2.3779226417867663 0 0 0
3798 6 9 0.14359 5.369868796575355 1.3115030855641303 4.403305440075171 0 0 0
3789 6 7 0.159284 3.4338256989676386 0.6590011058651746 4.964217448647429 0 1 0
3809 6 1 0.13332 6.147794681783052 5.212506519827487 5.840163791634778 0 0 0
3803 6 7 0.149505 6.633246111139034 3.705021492984505 4.0916698797325814 0 0 0
3543 6 1 0.131774 1.2761931483817421 6.409600116458487 1.7198558174812655 0 0 0
3795 6 1 0.139617 2.872735890855511 0.6436934510842857 2.3765691704927456 0 0 0
3791 6 9 0.15351 2.274571559249427 2.93607438766852 4.690235969979 0 1 0
4218 7 7 0.163848 5.085225149819234 2.9344761467801437 38.745309879314284 0 0 -1
4220 7 9 0.13907 4.225827806296732 1.0210942256868576 38.01527089665916 0 0 0
877 2 12 -0.399233 0.5548460786216843 5.682285917651169 4.4574158569460325 1 0 0
3806 6 10 0.133426 6.474330282812069 6.307019667800006 4.482756806063675 0 0 0
3785 6 10 0.134246 0.4983545151558009 0.2647195415655927 3.822126885693038 0 1 0
3539 6 9 0.15463 2.843652720198627 7.69500307890735 2.255274813329863 1 0 0
878 2 9 0.139404 1.2110563082850734 5.364630038738358 5.059978086467495 1 0 0
3707 6 9 0.151024 5.366743401543038 38.92581880353157 5.846111798715448 0 -1 0
3553 6 9 0.146285 2.3159004612578915 2.876957533073096 0.5939896999502039 0 0 1
4213 7 10 0.15038 6.827319480677901 1.7489518485018425 1.2340782702338573 0 0 1
3323 5 4 -0.081959 11.624651768184044 3.1994124979188534 5.38993206311524 0 0 0
3333 5 12 -0.414826 9.340202170258065 4.917350230567446 4.88643143868287 0 0 0
3330 5 4 -0.093468 10.153835151976907 5.279496511317898 5.945746959859357 0 0 0
3326 5 12 -0.400429 11.424907257429542 3.1573789306087536 3.973246384747915 0 0 0
4317 7 12 -0.397824 10.212629517366631 4.891669588430677 1.5204746284785693 0 0 0
3329 5 3 -0.060785 11.522234934996778 4.711085158406931 5.891442680123799 0 0 0
3328 5 10 0.130902 12.163175569978483 5.4409039505499255 5.334380724831669 0 0 0
3334 5 9 0.149231 8.576889510336493 5.511891468795412 4.916642013137813 0 0 0
3327 5 9 0.143924 12.108653104630687 3.6856802661435992 3.661482594059977 0 0 0
4318 7 9 0.152178 9.889977313898587 4.639304203593192 2.3974720416698676 0 0 0
3325 5 7 0.139124 10.77475953250399 2.6579837262965005 5.852916225292476 0 0 0
4214 7 3 -0.04806 7.085602612175219 2.2441657739927527 0.29230462883702685 0 0 1
4217 7 2 0.143763 7.4551109485134175 3.253739018277047 0.5144616706459124 0 0 1
4307 7 4 -0.08227 12.839542086711253 6.340388324812134 0.9104644308824119 0 0 0
4309 7 7 0.154655 12.761343882881873 5.3061755903988175 1.2466646599012359 0 0 0
3322 5 3 -0.061014 13.020234964167779 2.67014365029855 5.80537059032065 0 0 0
4314 7 4 -0.08268499999999999 10.393842676761386 6.324216220713287 1.454655167166386 0 0 0
6618 2 5 0.307446 10.820954287676582 1.7437315771639956 1.16559249315487 0 0 1
4216 7 1 0.151379 7.85991447270089 1.5803741346716742 38.52304054671762 0 0 0
6554 2 13 -0.224095 11.320625164870254 2.1685134221144207 0.42362049970554183 0 0 1
3336 5 3 -0.06460299999999999 10.344805387806925 6.720868853224308 6.115879319708924 0 0 0
4319 7 10 0.13153 8.238289023583354 6.422113620451462 1.7768689161763298 0 0 0
4316 7 7 0.151679 10.827407634502388 6.664568443959143 2.402632022922218 0 0 0
4320 7 3 -0.052069 9.042754304980237 7.0096201668494045 1.2745144813241762 0 0 0
3335 5 10 0.125183 10.938408762440364 7.200744097669043 5.333456142888667 0 0 0
4313 7 3 -0.046172 11.46998513189968 6.73149365286867 0.3966054845721066 0 0 0
3318 5 7 0.150629 13.182436521332498 1.3941619507230383 4.186010089151737 0 1 0
6614 2 5 0.273684 13.938429984577994 2.707705724526353 1.2577865503505123 0 0 1
3316 5 4 -0.081208 13.387393224457329 1.3156270095360834 5.285162962923355 0 1 0
6544 2 13 -0.247395 13.887213861545652 1.7676857658765344 1.1628571915368702 0 0 1
3321 5 10 0.122611 13.601570122673069 3.495515081216109 5.3850823142326165 0 0 0
5691 5 17 0.147097 14.988079518666403 2.08706614277153 3.4583576862809724 0 0 0
3099 5 4 -0.083577 17.24953362407563 3.1654766398711724 3.9528648881366353 0 0 0
3101 5 7 0.152505 16.919860090408815 3.0519684279261887 2.9226564068363805 0 0 0
3102 5 19 -0.416681 16.61491666256117 2.0964382997876805 4.694487791377322 0 0 0
3105 5 3 -0.057305 16.896833924611567 4.5743517981168464 4.5044461831364995 0 0 0
3107 5 1 0.131141 15.828482676835138 4.702460377313345 4.521704297730751 0 0 0
5685 5 21 -0.048988 15.495961714050415 1.398747819275388 4.188912746451248 0 0 0
3104 5 10 0.133514 17.249183420055886 4.569269131204336 5.554849319657856 0 0 0
3106 5 4 -0.085507 17.547057701342432 5.790135330177265 3.7437551538927303 0 0 0
3109 5 12 -0.402649 17.853795108591513 5.375318548180741 2.4579478129801093 0 0 0
3319 5 19 -0.397683 14.81946319526143 1.1368523217801036 5.376286905580735 0 0 0
3098 5 3 -0.054778 18.807892449335284 2.8316204932247198 3.968766415214453 0 0 0
3097 5 10 0.13727 18.85438356658623 1.794445766905998 3.524273678416631 0 0 0
2887 5 10 0.132488 18.172768486760578 1.213949312504217 1.1807739252856375 0 0 1
3100 5 1 0.133052 19.31344213748952 3.5276465271082458 3.27554339713799 0 0 0
3095 5 12 -0.400558 18.688161740970077 2.0138509803444653 6.23140660350984 0 0 0
3114 5 1 0.134234 18.708578061597912 6.29536749082948 5.493867946923709 0 0 0
5686 5 17 0.155259 16.414776812396656 0.3408133068771051 2.5160823496774745 0 0 0
2890 5 1 0.132047 19.020994847560093 2.645247223372359 0.7485210971651071 0 0 1
3110 5 9 0.144748 18.79653325779455 5.372737441002867 2.470506753634593 0 0 0
3092 5 4 -0.079125 19.487272248268418 2.702394978338012 5.3304342613256415 0 0 0
3094 5 7 0.153988 19.708758252409208 3.629409104349692 5.826650879600011 0 0 0
2886 5 9 0.132249 16.697647763564312 2.4861835937565533 1.2579787524704598 0 0 1
5682 5 16 -0.038333 16.01301321639831 38.84436780413363 3.5492813299232906 0 -1 0
3108 5 7 0.15072 16.72691750123098 6.501217887686454 3.550723711251609 0 0 0
3112 5 3 -0.053846 18.796112321090405 6.4093000698950835 4.374331435889167 0 0 0
3324 5 1 0.128047 13.238361641909044 2.931279494259188 6.861342852936188 0 0 0
3212 5 1 0.135384 15.485603054580146 5.27859349951714 7.178496261666127 0 0 0
3096 5 9 0.143496 18.09737584035884 1.4307765962139254 5.819035628310996 0 0 0
3111 5 10 0.133237 19.715146574994254 5.982936962659547 3.979481550622894 0 0 0
3093 5 1 0.139516 20.576398173384337 0.9181090666248967 4.8441052613319 0 0 0
3091 5 3 -0.039421 20.82752612007901 1.9042824964559917 5.22845551708506 0 0 0
3078 5 4 -0.074089 24.395274582225948 2.575077038627216 3.957025809538372 0 0 0
3084 5 3 -0.049815 23.23045858512032 1.985507819174939 4.821626912562319 0 0 0
3085 5 4 -0.0755 21.902568070091608 2.683517234797183 4.488741554144267 0 0 0
3080 5 7 0.158321 24.28909885027855 2.2673445654647018 2.8455306016328197 0 0 0
3088 5 12 -0.389754 22.022683082442676 4.050163512065657 4.873881113746979 0 0 0
3087 5 7 0.159217 21.75375974109571 2.5623249346101216 3.3763341121790487 0 0 0
3083 5 10 0.13369 23.38538466640122 2.003330229038766 5.941052285092485 0 0 0
3081 5 12 -0.392571 24.472956697117237 3.995135041400158 3.956395314744419 0 0 0
3089 5 9 0.153138 22.720002616536338 4.061911250436674 5.58102028900202 0 0 0
3082 5 9 0.158349 25.21730999486675 4.295136173616932 3.3877501589013947 0 0 0
3086 5 1 0.134499 23.18912232573544 0.9247016202655174 4.601060516033719 0 0 0
3077 5 3 -0.056954 25.720806384508087 1.9198397009752293 4.348066200354483 0 0 0
2897 5 1 0.132131 20.8749999413977 1.6553435609679716 1.3455398110756354 0 0 1
3076 5 10 0.124338 26.013868162257555 2.242883430675458 5.298335541725882 0 0 0
3020 5 10 0.132752 23.135047921710395 5.611831690909268 38.898493661654214 0 0 -1
3079 5 1 0.125291 25.699045072649312 0.8305188776279041 4.3006904397065755 0 0 0
3027 5 10 0.128918 25.83721246387413 5.444218224659769 2.212553573151899 0 0 0
3028 5 3 -0.055652 25.93243592618405 6.386223062762994 1.605741627288292 0 0 0
3030 5 1 0.127791 25.44007543001465 7.197141909515209 2.0822033057345597 0 0 0
1052 2 12 -0.41144 24.069626566016673 5.7596558993019205 6.060173367080226 0 0 0
1053 2 9 0.138125 23.311923841175204 6.300366721793833 5.974436248597309 0 0 0
3090 5 10 0.14018 21.202417874600478 1.7309062158134152 6.209636794516129 0 0 0
2895 5 3 -0.056477 20.72660420973838 0.7268533751130495 0.7781753655464151 0 0 1
2894 5 10 0.126908 20.32194541061544 38.77654539613157 1.5019243047279667 0 -1 1
2900 5 9 0.134882 22.31657650130646 37.827355755340484 1.9791712152058711 0 0 1
1058 2 7 0.146659 26.692720626639243 5.882943876424489 6.497108895928239 0 0 0
3075 5 9 0.140932 26.13101170249163 1.018341526699693 2.2785770829160303 0 0 0
3074 5 12 -0.414584 26.788960476257053 1.7313064256719772 2.1739178271173407 0 0 0
3073 5 7 0.142572 26.967119111826804 3.4188868892541673 3.4260258952539875 0 0 0
3071 5 4 -0.105167 26.906520856839805 2.330808316730017 3.4750718829832503 0 0 0
3070 5 3 -0.06064 28.22048431770853 1.8524312074628286 4.157007724077808 0 0 0
3063 5 3 -0.053414 30.711105929970646 2.1079761036555458 4.131914843583141 0 0 0
3064 5 4 -0.08115700000000001 29.436845436922802 2.098776217830577 3.240138004627935 0 0 0
3066 5 7 0.160225 29.462013434952343 1.3474762700767409 2.4384672443729087 0 0 0
3067 5 12 -0.406466 29.367918380334427 3.3929032756432105 2.676733943438418 0 0 0
3068 5 9 0.13829 30.260390301607323 3.6396937833781653 2.627868149322928 0 0 0
3062 5 10 0.133614 30.530272638731415 2.7786862786673794 5.030428494693143 0 0 0
3052 5 7 0.147213 31.75000843085935 4.637602983311212 5.294215803902849 0 0 0
3058 5 1 0.127314 31.682858592091698 4.411528576402612 2.8693721908149477 0 0 0
3057 5 4 -0.083345 32.073407355379096 2.4298100596553835 3.5056018559819027 0 0 0
3034 5 10 0.128112 28.251999749421113 5.81758375470227 2.9794462211272186 0 0 0
3065 5 1 0.135896 30.74682764901093 1.138675757350785 4.737170304678278 0 0 0
3069 5 10 0.127053 28.350099686786667 2.424192969102325 5.048646096176474 0 0 0
3060 5 12 -0.406729 32.13068176104373 1.7870968910303957 2.1747816709252055 0 0 0
3072 5 1 0.129942 28.2562649087022 0.7578045052610437 4.348500163125261 0 0 0
3041 5 10 0.131489 30.34308768408124 5.754611870634941 3.8595039044410777 0 0 0
3039 5 12 -0.402106 30.312196575460966 6.607673501734005 1.3366234817833635 0 0 0
3056 5 3 -0.059439 32.42508906472964 3.915505339242641 3.37973219542877 0 0 0
3061 5 9 0.140785 33.0674494976489 1.5870897424843233 2.0275988422820364 0 0 0
3045 5 7 0.148657 32.38700567074461 6.522827080338935 2.496785001391555 0 0 0
3040 5 9 0.144887 29.56781856332735 6.175044189962108 0.918815155081698 0 0 0
3035 5 3 -0.059896 28.226123836783593 6.850012370906465 2.505237595179026 0 0 0
928 2 10 0.126195 27.387746711037632 1.226483107311626 6.938880315532747 0 0 0
3050 5 4 -0.087032 32.61350754512655 4.705964931280928 4.699448532077732 0 0 0
3049 5 3 -0.06619999999999999 32.924542871212054 6.242478318306715 4.441814984564625 0 0 0
3054 5 9 0.144022 33.838156224037135 4.632998020084321 6.232050535114581 0 0 0
3048 5 10 0.130268 32.946404458875804 6.690011706337486 5.4045815425144195 0 0 0
927 2 9 0.147709 29.46112215229948 37.83546018936552 6.837199306196263 0 -1 0
872 2 10 0.131592 38.58150970826189 3.15810229648871 4.800508598122861 0 0 0
3059 5 7 0.154923 32.87049863571844 2.0217791308587567 4.038982315668151 0 0 0
3053 5 12 -0.402648 33.76680947158372 4.198996208216872 5.382377285436591 0 0 0
3055 5 10 0.131539 33.28419210838943 4.093747583661704 2.7080795121171573 0 0 0
871 2 9 0.152259 38.83363961505236 2.4829483994330057 2.6820758574278205 -1 0 0
869 2 7 0.156762 38.36383906165726 4.624227460717679 2.5062496949083264 0 0 0
874 2 4 -0.0833 38.0890632998831 5.262705246068196 5.088482924588765 0 0 0
870 2 12 -0.396912 37.918662043745215 2.5402412428860948 2.6129225811963956 -1 0 0
873 2 3 -0.051123 37.768026555268676 3.869534494734415 4.56853493570922 0 0 0
867 2 4 -0.075697 37.661741224471555 3.9239561744903577 3.0521805067627974 0 0 0
866 2 3 -0.047728 36.374651237232634 4.365413779711639 2.503616950586999 0 0 0
865 2 10 0.130579 35.627856959857176 3.55366095194352 2.584099111404244 0 0 0
3589 6 10 0.132415 35.04441511328581 1.5683852705132906 4.022715625887709 0 1 0
875 2 1 0.138586 36.829072754214685 3.559053680604732 4.9850207344647215 0 0 0
868 2 1 0.130245 35.973961323164936 5.183657205856854 3.027220812239452 0 0 0
3592 6 1 0.132032 36.59047541302582 0.8690882030153155 4.281146376199595 0 1 0
3590 6 3 -0.055395 35.5251078681311 0.6263367240913541 4.230864786413213 0 1 0
860 2 4 -0.078016 36.50248461051196 4.772744189185872 1.0441448406741791 0 0 0
876 2 7 0.153652 37.171158949249 5.827270879531725 4.801114391257389 0 0 0
3587 6 12 -0.411856 35.66280314155741 0.5069597323132209 1.9653729855352908 0 1 0
861 2 1 0.13111 34.33519596948196 4.902226286482329 0.8724114832256272 0 0 0
3588 6 9 0.13217 34.87326874351788 0.8377606090883947 1.610637291078461 0 1 0
3051 5 1 0.131191 33.912373759033734 6.225060911592846 4.0056026726118965 0 0 0
864 2 9 0.155827 35.83272356751291 3.2316451981792604 38.87482311824712 0 0 -1
3783 6 12 -0.391877 0.35542642762228466 0.446455254515676 6.511975590593048 0 1 0
862 2 7 0.152941 37.31064276090546 5.529314763548128 0.8308697548561159 0 0 0
880 2 3 -0.053492 38.342161499817735 5.337110278553967 6.56747634430591 0 0 0
3599 6 1 0.132055 36.4994610949271 1.4035165086590766 6.306536777377903 0 1 0
882 2 1 0.127738 37.770626370078965 4.496036847408046 7.098259405703347 0 0 0
3784 6 9 0.158815 0.9939496662158426 0.725663772912677 7.1917238637473595 0 0 0
3810 6 7 0.154585 3.7293314525661594 5.6712486411057865 5.562131157538042 0 0 0
3808 6 4 -0.079442 4.486659447941094 6.313882145709372 5.087594965182875 0 0 0
3812 6 9 0.144651 4.277870600293639 7.980809176163336 4.029448308274772 0 0 0
3811 6 12 -0.404435 3.9956824555604347 7.0490284431475585 4.017248837262807 0 0 0
3532 6 9 0.145047 1.3021895961494918 9.418075724561621 4.529971238093481 1 0 0
4336 7 1 0.129494 5.381366186168408 10.432974002586755 2.2089050478405783 0 0 1
3531 6 12 -0.406327 1.5496033168120606 9.643470300910804 3.662465152414666 1 0 0
4334 7 3 -0.053362 6.050534400251612 10.956477517774177 1.4585819109593379 0 0 0
4333 7 10 0.132283 6.06864654998812 11.99477348046814 1.8270796415779795 0 0 0
3528 6 4 -0.076807 0.64456570128663 9.18237215944763 2.7316183929189917 1 0 0
3530 6 7 0.157601 0.5200986344722273 8.183915787698826 3.0434775646258667 1 0 0
3534 6 3 -0.056548 1.2048399758920223 9.505501636081478 1.3534465549220156 1 0 0
3538 6 12 -0.397792 3.2394893633411845 8.180889912959872 1.50884933069071 1 0 0
3533 6 10 0.13179 1.8778032093254298 10.415886654813807 1.375423871097499 0 0 0
4807 7 12 -0.403686 4.007540298089455 12.082780367012571 3.9032116776079846 0 0 0
3817 6 7 0.158482 3.0734765717343344 8.471102589939958 5.760329346249905 0 0 0
3814 6 3 -0.055968 4.8409890464507965 7.35652432718558 6.102020093222379 0 0 0
4808 7 9 0.133574 3.525077022346411 11.699789869947859 3.1887057470291085 0 0 0
4813 7 7 0.155561 2.2464153015118296 11.316708416712467 5.67952185217828 1 0 0
3813 6 10 0.131199 5.639441728796328 7.949998532860885 5.637007128914058 0 0 0
3535 6 4 -0.0873 2.050995896141678 8.346530706398957 0.7439542037083455 1 0 0
4816 7 10 0.127351 38.594028586357794 12.122812451250049 5.669666167381298 0 0 0
4811 7 4 -0.081236 2.0369456282054608 12.411154298346787 5.779710088024116 1 0 0
3815 6 4 -0.081418 3.703449397758174 8.211459072727344 6.625468684071921 0 0 0
3819 6 9 0.140066 2.3794417349169863 6.692695349820762 6.968643451814994 0 0 0
884 2 12 -0.402183 38.79367555392444 7.629909599697905 6.376816224567123 0 0 0
4817 7 3 -0.049648 0.6294605650501283 12.615032106565609 6.290610216045992 1 0 0
4326 7 10 0.125817 6.8125562205850345 8.481388007222096 2.1885126793446275 0 0 0
3526 6 10 0.12895 38.226508923265534 10.988359049806487 3.018354560137804 -1 0 0
4864 7 9 0.15285 0.3957375315309539 12.514840028409905 1.361765807305806 1 0 0
3536 6 1 0.128814 0.3286295655151939 9.684200147599435 0.6949874888740794 0 0 0
3348 5 9 0.149457 7.567273955609192 8.866733833816081 5.14062845946931 0 0 0
4328 7 4 -0.078732 7.478432541248545 10.493713487131247 1.6276060078143182 0 0 0
4332 7 9 0.156801 8.86833454348576 10.627020887914082 2.732594379584054 0 0 0
4331 7 12 -0.395097 7.973286083660184 10.810887554155336 2.8232002879802915 0 0 0
4327 7 3 -0.059822 7.542295381790678 9.005930939933625 1.569175610691531 0 0 0
3339 5 7 0.144391 8.35659211284592 7.396697633124677 5.378999706962045 0 0 0
4323 7 7 0.154842 9.43334457955475 8.600726728604743 2.8050658595348836 0 0 0
4321 7 4 -0.085316 8.978848672143675 8.477085780583511 1.7149588207572057 0 0 0
3188 5 10 0.123069 11.668061919118554 9.65087894560116 4.31863649683314 0 0 0
3182 5 3 -0.062693 11.346894868516527 11.933319012528536 2.636990873827549 0 0 0
3347 5 12 -0.407465 7.777855100072876 9.81588126794226 5.319541294431122 0 0 0
3181 5 10 0.131521 10.402503303780696 11.38486645797043 2.948784217438465 0 0 0
3176 5 4 -0.081867 11.313931666560288 12.684488514845413 1.2783385028220733 0 0 1
3189 5 3 -0.058489 12.45334116334773 10.418901963577449 4.260547951870423 0 0 0
3353 5 7 0.156239 7.75553324414377 12.441767872252807 5.250473249231802 0 0 0
3191 5 1 0.130644 12.215176537591894 11.201336085332267 4.89812351863884 0 0 0
3183 5 4 -0.090754 12.521765857269626 11.015168212021415 2.9103062000923905 0 0 0
3184 5 1 0.127732 11.406933702072068 12.730974220992804 3.3390246416681575 0 0 0
3337 5 4 -0.09392200000000001 9.072931489393302 7.54134761634551 6.2360547060959135 0 0 0
3343 5 3 -0.053866 9.45635902318937 8.943791948612782 6.722526930831298 0 0 0
3342 5 10 0.12519 10.26003651558487 9.291835623945616 6.04093049096484 0 0 0
3344 5 4 -0.085728 8.385347418124017 10.001710163866809 6.607886419193368 0 0 0
3349 5 10 0.12263 9.823940068418308 11.6076572839638 6.3078663991730775 0 0 0
3350 5 3 -0.058067 8.85509774083511 11.393645909837915 6.831753426309404 0 0 0
3351 5 4 -0.08387 7.872630679473415 12.508060309861508 6.332524524445518 0 0 0
4330 7 7 0.149716 8.093929521683798 10.959937372362774 0.8211461496914785 0 0 1
4324 7 12 -0.400366 9.702529229485458 9.238555308419176 0.763953887860428 0 0 0
3179 5 12 -0.404956 9.960273190178423 13.035185816083784 0.9825074641434393 0 0 0
3345 5 1 0.125936 9.9558697188717 8.848180866091061 7.694215471168952 0 0 0
3338 5 1 0.126986 10.920988036884433 6.900409966273854 7.040512511104262 0 0 0
3352 5 1 0.129161 9.05622662393288 11.434581086525654 7.934166745421301 0 0 0
3195 5 10 0.129791 12.848620111548092 8.2053306607832 5.741131277705808 0 0 0
3186 5 12 -0.407847 12.441943802265143 9.894554035733483 2.1068595582527667 0 0 0
3187 5 9 0.138212 12.590238415640046 10.187894195597174 1.2373873421485027 0 0 0
4311 7 9 0.154569 14.130950282956055 7.063994508073933 2.1616920828036665 0 0 0
2366 4 9 0.138376 12.35710184474804 12.793033899442838 5.703572874673676 0 0 0
3198 5 1 0.131297 12.940787838984795 9.628224813335201 6.943965999228021 0 0 0
4315 7 1 0.137063 11.588588043189478 7.782214380936367 0.2993074633879823 0 0 0
4325 7 9 0.150383 10.584287750822092 8.901115792562203 0.8130829585248 0 0 0
4310 7 12 -0.397412 13.196375961269823 7.1766684407665196 2.035703122978591 0 0 0
3185 5 7 0.153627 13.484085113138654 11.570813991770477 2.759957754033734 0 0 0
3196 5 3 -0.061633 13.474654601323753 9.031261103222567 6.1090440088483575 0 0 0
3194 5 9 0.149844 15.145391916871382 8.549716951735663 4.22139633814616 0 0 0
3193 5 12 -0.405539 14.415607182387618 9.008152741046992 3.8354434205240477 0 0 0
3192 5 7 0.150933 14.415349433158397 10.734739826824631 5.013760946734315 0 0 0
3190 5 4 -0.07965999999999999 13.806229871261147 9.850744566006524 4.836586339887447 0 0 0
5768 11 16 -0.034318 16.286200011235813 12.269649250130474 1.122165071540111 0 0 0
3116 5 12 -0.412253 17.708030438850077 8.369180589009707 4.864250644896835 0 0 0
5770 11 17 0.158494 17.240903429943785 11.902529503540402 1.2505220195113183 0 0 0
3117 5 9 0.136561 17.452344605211408 9.249381628705988 4.546572289422982 0 0 0
3113 5 4 -0.08269799999999999 18.712362444630557 7.923407106415272 4.0126093259074365 0 0 0
3009 5 1 0.131172 18.753581327580328 7.719983213656931 0.8060281269986637 0 0 0
3003 5 7 0.15234 18.3100902849109 10.10991663436174 0.7880071067076557 0 0 0
5777 11 17 0.156801 16.84814820092907 11.642475770281894 3.7521977314865502 0 0 0
3115 5 7 0.1602 18.540521901929463 8.086752459253503 2.956530530272646 0 0 0
5771 11 17 0.157472 15.64474613605033 11.338986071674004 1.1895543947373532 0 0 0
3123 5 12 -0.410284 19.14850398514066 10.682196499359035 4.9508997907788554 0 0 0
5772 11 16 -0.034156 17.05016482389441 12.634403804318753 3.440935662855269 0 0 0
5776 11 17 0.15651 18.07398581145235 12.55209284451645 3.0040137380772074 0 0 0
3132 5 10 0.129375 19.428878165449035 12.26140517470699 1.5483648903472658 0 0 0
3125 5 10 0.123679 19.882396203781326 10.314705032649822 2.3021638117551215 0 0 0
3124 5 9 0.143328 18.614265476394884 10.686643887209035 4.228963815963001 0 0 0
2358 4 19 -0.406716 16.013905631239695 13.093752118384295 5.621753655666767 0 0 0
3199 5 7 0.162987 15.097632854708223 7.700231908581182 6.179590331084414 0 0 0
3197 5 4 -0.071905 14.689052638525258 8.413848476275202 6.82381150750841 0 0 0
3005 5 9 0.151356 16.22000658786389 9.883869806963018 38.865346147464386 0 0 -1
3022 5 4 -0.07981000000000001 25.04558372480198 6.2817987282262395 0.4026864429261988 0 0 0
3021 5 3 -0.052947 23.570901538625534 6.407127500376656 0.7104639353472729 0 0 0
3023 5 1 0.126943 23.366770639122482 6.151102565397702 1.8182223486169082 0 0 0
3121 5 1 0.126069 20.30312889351748 8.11625736525445 5.460847082917807 0 0 0
3129 5 7 0.144056 20.244653316635777 12.648261602417438 3.758342893852895 0 0 0
3119 5 3 -0.059782 20.092948593183714 8.495891419821959 4.455440366585127 0 0 0
3016 5 1 0.13001 21.18681906543663 7.46299870473802 1.6136658342893226 0 0 0
3126 5 3 -0.060507 20.644434904086037 10.603500775355204 3.0838068315607896 0 0 0
3120 5 4 -0.091421 20.264570879283202 10.010525322912041 4.416268503220145 0 0 0
3128 5 1 0.125838 21.567335469166807 10.1135617044732 2.707286802377426 0 0 0
3122 5 7 0.151162 21.09581820258972 10.299425718346441 5.058706040429093 0 0 0
3118 5 10 0.128667 20.861609943049608 8.12902103533582 3.718881910572937 0 0 0
3127 5 4 -0.093377 20.88800230012353 12.10053443831627 3.0357290788941773 0 0 0
2277 4 3 -0.051223 24.856872780348166 9.79475171696798 4.158672160569394 0 0 0
2276 4 10 0.131529 24.86863297989006 8.850055484330296 3.6227086304072076 0 0 0
3133 5 3 -0.054776 20.494342345095646 12.61389747664172 1.6895946539147666 0 0 0
3130 5 12 -0.413916 22.20856631872941 12.410015113318941 3.4516640088609067 0 0 0
2278 4 4 -0.08340400000000001 24.69685051003736 9.52365749562189 5.700249649315569 0 0 0
2279 4 1 0.138529 23.97348099047426 10.232900083323655 3.6953848940297007 0 0 0
3135 5 1 0.125002 21.199433699071836 12.24127140900028 0.948722802947244 0 0 0
2281 4 12 -0.399319 23.70195061244043 8.534539110249932 5.983811006804858 0 0 0
3018 5 12 -0.408459 23.373792185077157 8.824286092280957 1.165525470549212 0 0 0
3014 5 3 -0.052226 21.340519374755246 7.668261257734455 0.5765548290097403 0 0 0
3015 5 4 -0.07724 22.89054269027988 7.761222252980908 0.3449681944464223 0 0 0
2280 4 7 0.153576 25.703066211526966 9.051910572773002 5.927179477195585 0 0 0
3131 5 9 0.131662 22.810762632029242 11.872722116974062 2.859445521150205 0 0 0
2286 4 1 0.127703 25.07455603730976 11.544483752325371 6.104882708361956 0 0 0
2283 4 10 0.128968 23.45382059685118 11.147128865897365 6.583598291930461 0 0 0
2282 4 9 0.139344 22.861183021462814 9.022219559874175 6.102889485860689 0 0 0
2284 4 3 -0.053541 24.442822948974687 10.74235033058503 6.557386945392991 0 0 0
3024 5 7 0.155355 25.318084314313104 7.0796988741585345 38.41463122168424 0 0 -1
2272 4 1 0.130266 25.463426297449377 10.530594703371285 1.5872932592666695 0 0 0
2273 4 7 0.156719 25.661957769114665 11.702065491393718 3.8812926883107797 0 0 0
2345 4 9 0.139626 20.59228583483074 12.608338529283326 7.602699838307699 0 0 0
2344 4 12 -0.400435 21.078735375740695 12.574350483951266 6.788680165947072 0 0 0
3042 5 3 -0.054826 30.526711683235536 6.768115166320781 3.593296884736332 0 0 0
3029 5 4 -0.085926 27.421648109081147 6.669799089664231 1.241184899258424 0 0 0
2271 4 4 -0.075761 26.016844262638074 10.678548540500335 3.7224720082459273 0 0 0
3043 5 4 -0.089628 32.02054905391746 6.951631448397167 3.3922974907840624 0 0 0
3037 5 1 0.131044 27.720924688761286 7.54131973761859 3.1275151315112035 0 0 0
3036 5 4 -0.084259 29.66187967263016 7.213313449260787 2.422351782586976 0 0 0
2270 4 3 -0.047699 26.37185996157581 10.501811828549158 2.2696607990992446 0 0 0
2269 4 10 0.130585 26.8366751204579 9.584106745167615 2.064366637477923 0 0 0
2274 4 12 -0.396984 27.23185021716011 10.410125103208392 4.466766675496478 0 0 0
2275 4 9 0.152206 27.344452679391203 11.17153062195011 5.094317389353034 0 0 0
3044 5 1 0.130515 30.227617719834093 7.369890120394733 4.47470144333504 0 0 0
2264 4 4 -0.07788100000000001 27.38412681774756 11.50383960136011 1.750167309910406 0 0 0
2263 4 3 -0.053582 28.705091105369505 11.55775360002975 2.3905468013304625 0 0 0
2257 4 4 -0.07935 29.818485268389466 11.919041942787945 1.3835209328988434 0 0 0
3038 5 7 0.148096 29.760916700378722 8.270156655790004 2.2544459185989685 0 0 0
2256 4 3 -0.049753 31.127641527504235 11.708292457468913 2.1642575692438992 0 0 0
2265 4 1 0.131288 29.009601296072635 10.553149962420822 2.8040511142692712 0 0 0
2262 4 10 0.131266 28.71610042379438 12.28001621390331 3.214014043207741 0 0 0
2266 4 7 0.153007 27.49586785996711 11.16588823798691 0.7519395524424678 0 0 0
2258 4 1 0.132136 31.376291933970666 10.610802706422431 2.5376925627236866 0 0 1
2316 4 12 -0.408463 29.56084386967164 12.95473701835392 5.350806660777465 0 0 0
2259 4 7 0.155216 29.71390578092342 11.279297117477732 0.55935987752932 0 0 0
2267 4 12 -0.400402 26.726299647477592 12.795157520080416 1.8106406915780302 0 0 0
3031 5 7 0.150009 27.465897429534635 7.591902483363251 0.6735675653335447 0 0 0
2317 4 9 0.139258 30.493206617652838 12.755556174546788 5.113200087489033 0 0 0