LAMMPS data file via write_data, version 23 Jun 2022, timestep = 752209

2991 atoms
18 atom types
3046 bonds
16 bond types
5801 angles
31 angle types

30.26568631970251 59.84131368029729 xlo xhi
27.351186319702663 56.92681368029744 ylo yhi
30.234688319702514 59.81031568029729 zlo zhi

Masses

1 1.00794
2 1.00794
3 12.0107
4 12.0107
5 1.00794
6 1.00794
7 1.00794
8 1.00794
9 15.9994
10 12.0107
11 12.0107
12 1.00794
13 15.9994
14 15.9994
15 12.0107
16 12.0107
17 1.00794
18 15.9994

Pair Coeffs # lj/cut

1 0.038 2.44997
2 0.038 2.44997
3 0.039 3.87541
4 0.039 3.87541
5 0.038 2.44997
6 0.038 2.44997
7 0 0
8 0.038 2.44997
9 0.228 2.85978
10 0.148 3.61705
11 0.039 3.87541
12 0.038 2.44997
13 0.228 2.85978
14 0.228 2.85978
15 0.148 3.61705
16 0.148 3.61705
17 0 0
18 0.228 2.85978

Bond Coeffs # harmonic

1 340.618 1.105
2 340.618 1.105
3 322.716 1.526
4 340.618 1.105
5 340.618 1.105
6 340.618 1.105
7 384 1.42
8 540.634 0.96
9 283.092 1.52
10 340.618 1.105
11 615.322 1.23
12 322.716 1.526
13 340.618 1.105
14 384 1.42
15 540.634 0.96
16 384 1.42

Angle Coeffs # harmonic

1 39.5 106.4
2 44.4 110
3 39.5 106.4
4 44.4 110
5 39.5 106.4
6 46.6 110.5
7 44.4 110
8 44.4 110
9 70 109.5
10 46.6 110.5
11 44.4 110
12 58.5 106
13 39.5 106.4
14 57 109.5
15 57 109.5
16 46.6 110.5
17 45 109.5
18 50 120
19 68 120
20 46.6 110.5
21 44.4 110
22 55 120
23 39.5 106.4
24 70 109.5
25 57 109.5
26 70 109.5
27 57 109.5
28 80 109.5
29 70 106
30 80 109.5
31 58.5 106

Atoms # full

1910 3 8 0 35.57173696004268 31.7369874671992 33.54250896196949 1 1 0
1915 3 14 0 35.70334887598029 33.97518768191448 33.76747206602476 1 1 0
1913 3 1 0 34.20629163093936 32.07927021984193 32.37194646468817 1 1 0
1911 3 3 0 35.30290897492219 32.06262584033946 32.53858163545344 1 1 0
1912 3 4 0 35.728272371907806 33.5160805285645 32.42800962778449 1 1 0
2561 4 9 0 36.24843209022039 29.366766648427756 34.61767629647993 0 1 0
1927 3 1 0 32.03586449039404 33.67496294392311 31.105118822732454 1 1 0
1905 3 4 0 36.04263760617359 31.18091310804832 31.516729928123777 1 1 0
1904 3 3 0 35.43029069880208 29.884268953682454 31.070435245962525 1 1 0
1914 3 5 0 36.595269769133424 33.518007109950055 31.920144715056086 1 1 0
2845 3 12 0 37.05009002092216 31.679564067346913 35.44591214658659 0 2 2
1903 3 8 0 36.13280290085187 28.967279154543213 31.32460487049986 1 1 0
1906 3 1 0 34.51020242786393 29.708805766889277 31.570927970107007 1 1 0
2556 4 8 0 37.02658239386549 28.175120276331654 36.53905994508698 0 1 0
2558 4 4 0 36.735038816736456 28.072659935671194 34.46103980288486 0 1 0
2980 12 12 0 32.01185667193279 27.86583719295099 34.9956228943113 1 1 0
1907 3 5 0 36.20581161405572 31.79397591376039 30.551984224951187 1 1 0
1933 3 4 0 31.016368242783077 30.109599027458707 31.17945956293926 1 1 0
1935 3 5 0 32.00898076553308 29.598936729079263 31.08329523818886 1 1 0
2562 4 7 0 35.779755944231226 29.28164696101828 35.438388470069555 0 1 0
1236 2 8 0 30.909401036338757 34.189965655790665 34.85614757307904 1 0 0
1936 3 9 0 30.876279354263538 30.72398248903932 32.50043324334406 1 1 0
2563 4 8 0 34.87037541823536 27.743912043935865 33.68939892867232 0 1 0
2839 3 16 0 36.81268282514503 34.43434641473411 34.566132544355284 0 2 2
1233 2 5 0 31.382113988588255 33.614177116017544 37.16910942420678 1 0 0
1918 3 3 0 34.634781895506165 34.2684147149993 31.660630408059692 1 1 0
2851 3 12 0 36.32561631052259 34.56114451189464 35.56705709035386 0 2 2
1908 3 9 0 37.34209240150994 30.807198322203647 32.06179096251071 1 1 0
1937 3 7 0 59.52158967666255 30.74667985260914 32.76864067879678 0 1 0
1239 2 1 0 32.59050503347852 34.20959617374642 35.2281701324877 1 0 0
1943 3 14 0 30.28823063263593 27.639354858407106 32.961339494900834 1 1 0
1934 3 1 0 30.268174231863927 31.991071609544647 30.535228065703635 1 1 0
1920 3 1 0 33.80612003039279 34.530057474285094 32.345156837975445 1 1 0
1909 3 7 0 37.15750380280508 31.04219379867157 32.96569731841907 1 1 0
1925 3 3 0 32.60107776255672 33.43394081771325 59.7409362476771 1 1 -1
2988 12 12 0 31.919746378668435 56.81191762402788 31.69980515599722 1 0 0
2557 4 3 0 37.442617240303704 27.592288906486964 35.6979875570998 0 1 0
1228 2 7 0 34.988705986483964 33.452495918966044 37.01121711228341 1 0 0
2457 4 7 0 30.818346093925243 31.706763088842887 37.08241968228989 0 1 0
2456 4 9 0 30.827097706282196 30.74461424905077 37.113438718689785 0 1 0
1932 3 3 0 31.002016222575204 31.265611128708112 59.72035842635535 1 1 -1
1919 3 4 0 34.10165888372805 33.90291763593221 59.77182855036038 1 1 -1
2560 4 5 0 37.49486631969508 28.01169733191571 33.548317295671225 0 1 0
2846 3 12 0 38.14925185665903 32.61964527786016 36.63449236404389 0 2 2
2843 3 12 0 38.02274993086167 32.896521522899235 33.63212389693013 0 2 2
2840 3 11 0 37.964273610089606 33.40624898881818 34.571266341622845 0 2 2
2841 3 11 0 38.02049354043234 32.24122516540945 35.59698957754563 0 2 2
2686 4 5 0 38.71964373669291 33.649876346357544 31.53508235471774 0 1 0
2849 3 12 0 39.06057893522775 31.020803192585134 34.34001187144173 0 2 2
2842 3 12 0 38.940121199433506 33.85817187454299 34.75237709522906 0 2 2
2844 3 11 0 39.275554044750294 31.29378005240285 35.3307188418668 0 2 2
2848 3 12 0 40.256734739281214 31.853509816026758 35.47474040160943 0 2 2
2847 3 16 0 39.395418424325484 30.036119968436882 36.24608275539986 0 2 2
1509 3 14 0 40.62803538109074 30.13196385583008 36.93356943049141 0 0 0
2554 4 14 0 39.53594532614983 28.92082677816226 35.33229332310021 0 1 0
1497 3 8 0 42.31413960158557 28.525047385726165 36.77403109316622 0 0 0
2680 4 9 0 40.237039643514784 31.61012887597589 31.359074149300902 0 1 0
2681 4 7 0 41.00431298088423 31.060254685329497 31.38688434081574 0 1 0
2703 4 8 0 41.55970538731843 33.082625398954676 33.124665014729636 0 1 0
2710 4 8 0 42.68435405749359 31.975085027522187 31.61789407280414 0 1 0
2704 4 3 0 42.388474813432836 33.68153333818882 33.55885064437954 0 1 0
2706 4 1 0 42.44402413114546 33.406381486502625 34.566767275053174 0 1 0
2711 4 3 0 43.744126686544206 32.09452176667586 31.99524887351836 0 1 0
2705 4 4 0 43.714765246400944 33.40251129248809 32.947594612836355 0 1 0
2707 4 5 0 44.03680403558432 34.253845604334266 32.39266748238521 0 1 0
2690 4 3 0 40.431754665981 34.446467883863846 30.54986915349783 0 1 0
2692 4 1 0 41.19190389103244 33.766839453807265 30.94697351274801 0 1 0
2708 4 9 0 44.62869574494199 33.13597912053739 34.00267067954039 0 1 0
2853 3 12 0 38.588644703813934 29.912134654560404 36.900775639794496 0 2 2
1747 3 9 0 43.856944121905734 28.423698074602854 33.84293018849008 0 1 0
2713 4 1 0 44.05328200344524 31.199046803794843 32.52083313499983 0 1 0
1748 3 7 0 43.200113821417126 28.77948980509737 33.22021207378657 0 1 0
2551 4 4 0 38.97417318607748 27.606700554642778 35.72351133064031 0 1 0
469 1 9 0 42.001817337981294 34.5770950611953 36.98045238506747 0 0 0
1740 3 9 0 41.07134324574373 27.530979688452305 32.95866157878523 0 1 0
2712 4 4 0 44.60463319853797 32.41866856397904 30.722204684627805 0 1 0
1742 3 8 0 43.01421939312571 56.683491365192154 31.417237522974613 0 0 0
2709 4 7 0 44.47749250038702 32.288058139358476 34.396938777421404 0 1 0
2549 4 8 0 40.72532586168565 27.452944062306482 36.82003707920134 0 1 0
2684 4 4 0 39.0083590925406 34.00258875028724 30.53299381720055 0 1 0
2720 4 1 0 44.12037495827904 30.32788246595334 30.32282192983525 0 1 0
470 1 7 0 42.66206548477711 33.9418715210547 36.77843572369499 0 0 0
2693 4 5 0 39.90533548292244 34.92467248227154 32.55311870016675 0 1 0
2716 4 7 0 43.28769780219899 33.78102235965303 30.372843751036186 0 1 0
475 1 5 0 44.22481327625747 33.481918589934466 37.25995555262703 0 0 0
1741 3 7 0 40.17722409195511 56.9097332320964 33.313828385728264 0 0 0
1743 3 3 0 43.23583946943339 56.27063098407342 32.37372383197653 0 0 0
2672 4 5 0 40.8883018110696 29.30317016396163 30.36409332259856 0 1 0
702 1 7 0 45.053034958827354 30.774109228041574 35.27184445459056 0 0 1
1749 3 8 0 45.684057565693294 28.79698258241702 32.10039514441974 0 1 0
2714 4 5 0 45.641385384992304 32.69143192500177 31.031199697240087 0 1 0
699 1 5 0 47.67825346272936 30.451827577826897 36.02721423420345 0 0 1
701 1 6 0 46.69778478570721 31.886448935676917 35.85792441719157 0 0 1
697 1 4 0 47.02992063746767 30.952041650564826 35.33958511777352 0 0 1
698 1 1 0 47.507733404963645 32.19125262459843 33.6470747107879 0 0 1
696 1 3 0 47.728493764830866 31.16390544362907 33.94541513216646 0 0 1
695 1 8 0 47.286381768111525 30.44299098239487 33.27897469680326 0 0 1
689 1 3 0 49.78069650166284 30.766576128655675 32.480782611866424 0 0 1
690 1 4 0 49.25541616802714 30.99819451822895 33.88216067845997 0 0 1
692 1 5 0 49.79152274820099 31.850275562565898 34.41279195187334 0 0 1
688 1 8 0 50.6421188249016 30.049540801498207 32.488637640518725 0 0 1
693 1 9 0 49.73493625642481 29.862134066635512 34.498394620441985 0 0 1
694 1 7 0 49.24607573912928 29.87811147539972 35.30794564737184 0 0 1
683 1 4 0 50.208278885978466 32.03207543628893 31.792960643493085 0 0 1
691 1 1 0 49.013837994395544 30.14428349826585 31.907181136724425 0 0 1
685 1 5 0 49.50092475530404 32.881471053467266 31.994403043589855 0 0 1
686 1 9 0 51.42581546361376 32.473575465885396 32.30517339692509 0 0 1
700 1 9 0 45.83319469821894 30.183593545381953 35.16067527506126 0 0 1
931 2 1 0 50.5143363470271 29.581192369236803 37.618921012108956 0 0 1
942 2 8 0 50.79094386973456 33.44290240874686 36.0537116242917 0 0 1
949 2 8 0 48.053808192909585 34.17800739508899 35.74945453000608 0 0 1
1756 3 8 0 47.99575539156832 28.341686743926882 31.43102474533928 0 1 0
1493 3 1 0 45.45737523085904 27.62054856177349 36.32490799998202 0 0 0
1750 3 3 0 45.599451119326694 27.674263519213305 32.23409470885752 0 1 0
2723 4 7 0 47.01387692247377 31.447231907580246 30.599433267241746 0 1 0
1768 3 9 0 52.22095157070552 27.963936596757087 31.895530877618153 0 1 0
924 2 1 0 52.11703182048262 29.64387217953771 35.47435545812334 0 0 1
1769 3 7 0 52.09030228006378 28.667231826032882 31.225898244902105 0 1 0
1754 3 9 0 47.13528817560267 27.388073575350514 33.909764505118844 0 1 0
1755 3 7 0 46.31354934070566 27.38394170667379 34.4127196267483 0 1 0
2722 4 9 0 46.91068856935502 30.583219975493527 59.80080524197256 0 1 -1
1486 3 1 0 46.72368835020831 28.916892299508277 37.95583695765984 0 0 0
1752 3 1 0 45.343058562381096 56.839168693589 31.19749664402278 0 0 0
1762 3 7 0 50.29105932001349 56.09500220420128 33.71666389736126 0 0 0
1763 3 8 0 50.13187546897676 27.924283697867814 30.54087287216693 0 1 0
929 2 3 0 51.35372033525124 30.229268971943597 38.02227714938036 0 0 1
938 2 1 0 49.81546052813913 31.724863843458472 36.81671716925134 0 0 1
1939 3 3 0 59.51468063656772 29.061624377488585 30.892037547786703 0 1 0
687 1 7 0 51.196732467002754 32.98822074863101 33.08132533849722 0 0 1
925 2 5 0 52.388552469993584 31.57544863444235 36.67180699852277 0 0 1
923 2 4 0 52.55222805871365 30.6495969366022 37.1372260051954 0 0 1
922 2 3 0 52.921737714513974 29.569849301605547 36.15154656737196 0 0 1
917 2 1 0 52.918741247500606 30.528294273374836 33.73104420210716 0 0 1
907 2 8 0 53.4107901509864 30.75197139885792 31.52364674899384 0 0 1
2909 7 12 0 58.702653305588576 32.55006927857633 34.232790974811415 -4 -4 1
2905 7 12 0 58.19786368469495 31.65217398849311 36.314738606534746 -4 -4 1
2901 7 11 0 57.4302711578019 31.45483812270718 35.623129136099365 -4 -4 1
2906 7 12 0 56.53071595482961 31.85070670545649 36.01546424183841 -4 -4 1
915 2 3 0 53.935440519705296 30.05229122740637 33.86637945687747 0 0 1
918 2 5 0 54.62102438173198 30.815294731849896 35.840557702702355 0 0 1
916 2 4 0 54.250157446287034 29.88343253324544 35.38890108023719 0 0 1
914 2 8 0 53.98221159601819 29.04118446781563 33.37466413969405 0 0 1
2903 7 12 0 58.28083655110215 29.453138687701784 35.90047560103647 -4 -4 1
2902 7 12 0 57.0616532110794 29.557056708399646 34.72533566621646 -4 -4 1
2900 7 11 0 57.304491935385855 29.92566057107528 35.667896738744844 -4 -4 1
919 2 14 0 55.15886550918833 28.801276817785325 35.70421269662345 0 0 1
2908 7 12 0 57.895761931205314 31.210791110202255 33.46294672543088 -4 -4 1
2904 7 11 0 57.672616848591005 31.988866111131685 34.180383110082744 -4 -4 1
2907 7 16 0 56.543814562036225 32.8142512349309 33.58719482416028 -4 -4 1
911 2 5 0 55.92498988063656 30.439038826934166 33.13428399563989 0 0 1
1940 3 4 0 58.91359347974264 28.354994964204863 32.13493994314694 0 1 0
1942 3 5 0 58.5402710195811 29.22314687500838 32.71988467490313 0 1 0
912 2 14 0 55.24847819838996 32.15912142877105 33.87775636209193 0 0 1
909 2 4 0 54.9885120978108 30.95960597061609 33.13955719373713 0 0 1
2913 7 12 0 56.650051120520395 32.96203032430771 32.49708748070907 -4 -4 1
908 2 3 0 54.4519599851151 31.233158622158804 31.74816480185414 0 0 1
910 2 1 0 54.347257329573665 32.3532246132305 31.686572652438297 0 0 1
1948 3 1 0 56.74412066165227 28.20276401699231 31.957229670594096 0 1 0
2899 7 16 0 56.22365025517732 29.280225179532266 36.53463499853845 -4 -4 1
2020 3 14 0 56.567907010492135 34.13556015778376 34.22132821940726 0 0 0
921 2 8 0 53.07542234126223 28.52235711802928 36.593531712305655 0 0 1
147 1 14 0 56.98634454761013 28.335794986867807 37.30922585668226 0 1 0
904 2 5 0 56.48093217845887 30.65962342852643 30.94412082406172 0 0 1
3016 14 12 0 58.8027132413613 33.56197890188295 37.1623566666655 0 1 -1
1946 3 3 0 57.60678505580386 27.50920623833563 31.915932463203877 0 1 0
2911 7 12 0 55.726637972048984 29.942232390405042 37.31380383599598 -4 -4 1
902 2 4 0 55.4101665860578 30.792982970421637 30.658932177638746 0 0 1
3007 14 12 0 57.47479772534819 35.659696305066475 36.96531548099238 0 1 -1
2027 3 9 0 52.981676935805 34.31532768772423 34.22298864692193 0 0 0
2028 3 7 0 53.70331544681009 34.08408686996383 34.79111330127426 0 0 0
1941 3 1 0 58.74499982279672 29.69618099778065 30.456981251506555 0 1 0
2019 3 5 0 55.23391944418438 34.39027958731102 32.689659595355934 0 0 0
926 2 9 0 53.67919360678836 30.931485877123276 38.014946295635895 0 0 1
892 2 7 0 59.12643422632232 35.12888802795761 59.588085011466966 0 0 0
1231 2 4 0 31.413050266612935 34.68518997870807 36.94720565936809 1 0 0
1237 2 3 0 31.619085882903466 34.74936254560412 35.41289110134295 1 0 0
1917 3 8 0 35.161424656159205 35.283542619993135 31.546601140297675 1 1 0
448 1 14 0 37.144174204437284 35.77295014424287 34.21714330891667 0 0 0
2858 4 12 0 32.421490291754736 37.77913562777187 31.694511654506314 0 2 0
2855 4 11 0 31.571770720568633 37.2230704991343 31.345257325385546 0 2 0
1241 2 14 0 31.241892277246087 35.826729768180854 33.329135422871154 1 0 0
2958 10 12 0 35.08052216088678 40.46187549671267 32.32382092235753 0 0 1
2952 10 16 0 35.8798679621506 40.991904853314814 31.719300514503953 0 0 1
2610 4 14 0 36.712160123941175 41.71349282527798 32.624373505234104 0 0 0
1247 2 5 0 32.29032474968207 38.72522727580096 34.88468254399628 1 0 0
1238 2 4 0 31.600196916748818 36.138670509396505 34.70473797317404 1 0 0
1244 2 3 0 32.958059196035386 36.86695804491802 34.89800511075615 1 0 0
1245 2 4 0 32.80983632567527 38.123321650949045 35.686525805683836 1 0 0
1251 2 3 0 34.199663736330066 38.67759565327394 36.01333207566589 1 0 0
1254 2 5 0 33.83826009955481 40.18134121476965 34.49053384099065 1 0 0
1252 2 4 0 34.378323223822946 40.14473363468351 35.46549048952911 1 0 0
1246 2 1 0 33.59873070256952 36.10228075212399 35.33120000816479 1 0 0
1243 2 8 0 33.635341870585975 36.994959551969814 34.07338612261641 1 0 0
1250 2 8 0 34.89139004839758 37.921789073561285 35.62116882104352 1 0 0
2946 10 11 0 36.494646769758575 38.43676607575442 31.140928656547594 0 0 1
2949 10 11 0 36.80430816618891 39.95443042043877 31.061077601610897 0 0 1
12 1 1 0 33.33036487506605 40.17822973956586 30.997938988342792 1 0 1
10 1 3 0 32.879187348938096 41.107192713595964 31.31392404460875 1 0 1
6 1 5 0 31.713325721989683 39.89978323738875 32.86439263444567 1 0 1
3 1 4 0 31.776251731377165 40.90096684899784 32.398297064321234 1 0 1
1248 2 9 0 31.903503302033673 38.06824204814812 36.79717524928317 1 0 0
2857 4 12 0 31.9271412330891 36.21541450153422 31.041687407581453 0 2 0
2854 4 16 0 30.738252190834768 36.983805653550405 32.57071151297557 0 2 0
2866 4 12 0 30.794121755062342 37.88821925963497 33.290324502958754 0 2 0
450 1 8 0 36.97659125795957 36.34935346641706 36.628861760146194 0 0 0
1255 2 9 0 35.75062817370828 40.27980234870067 35.11100312459506 1 0 0
14 1 14 0 35.119620719699554 41.86388665170701 30.851138197979612 1 0 1
1258 2 3 0 33.941943723487626 41.31339167728522 36.44668366659111 1 0 0
7 1 9 0 31.972918221438768 41.90465115341648 33.3844480309508 1 0 1
2950 10 12 0 36.452180406023366 38.15249913209084 32.19981893803257 0 0 1
1256 2 7 0 35.84574263523801 40.81885770556905 34.31499157090301 1 0 0
1260 2 1 0 32.92624229551994 41.06593980980732 36.71315966018225 1 0 0
1240 2 5 0 30.79366006171665 36.76295817845994 35.12483766958614 1 0 0
11 1 4 0 33.89652541006104 42.23430581057171 31.52681513960857 1 0 1
1249 2 7 0 31.777714421959182 37.152391632026756 37.05337999932408 1 0 0
1253 2 1 0 34.43094009668628 38.71131434025483 37.08519132624071 1 0 0
2951 10 12 0 35.5648231160599 38.1895030701201 30.609476942143896 0 0 1
2 1 3 0 30.376554231227615 41.15893647962535 31.807295893584627 1 0 1
1257 2 8 0 34.56599225246276 41.154007841618395 37.339976099611405 1 0 0
2860 4 12 0 30.752631775562296 38.958238800433485 30.291510858794 0 2 0
8 1 7 0 31.494006705808395 41.522580174128365 34.12818285521466 1 0 1
9 1 8 0 32.2809899747224 41.53343447468998 30.457719142692103 1 0 1
2856 4 11 0 31.006233414909257 37.92586115350624 59.676763368980986 0 2 -1
2945 10 11 0 37.51934046124414 37.47707470273563 30.411471341591167 0 0 1
446 1 1 0 37.63085358794223 38.411294576012 34.935657637964596 0 0 0
1234 2 14 0 59.77610768844211 35.291581620163406 37.416554750481 0 0 0
13 1 5 0 34.22423549615082 42.32479862347097 32.62263453084941 1 0 1
2698 4 4 0 42.101089066904606 35.19365169306219 33.483460173104234 0 1 0
2700 4 5 0 41.304015670069084 35.45970841079709 34.060676501536484 0 1 0
2956 10 12 0 37.651123136711284 35.770874032373726 31.93882794915486 0 0 1
453 1 1 0 38.27394947881831 37.63909085053565 36.69912775918075 0 0 0
451 1 3 0 38.0019652393898 36.633413203572964 36.39009186666665 0 0 0
2954 10 12 0 37.798358787026665 40.09539146435739 31.62204478771281 0 0 1
443 1 8 0 37.71751523517108 37.642578873368464 33.46369651063017 0 0 0
2702 4 7 0 44.03558347375991 35.36227400288362 33.875898607912276 0 1 0
454 1 5 0 39.55160848688062 35.006798896699735 36.55803385975985 0 0 0
2699 4 1 0 42.59424492167351 35.42939736193948 31.338718690426397 0 1 0
2691 4 4 0 40.369290004032926 35.392984214791205 31.73167808330541 0 1 0
2701 4 9 0 43.23439961835516 35.901261685389294 34.01054153439941 0 1 0
461 1 5 0 41.15860911897964 36.92559996469928 36.617221084437716 0 0 0
2697 4 3 0 41.828330193372985 35.75468084564508 32.10300918372884 0 1 0
445 1 4 0 38.24495659506103 36.41271950262009 34.91159359282081 0 0 0
2696 4 8 0 41.992849584243174 36.787208322468445 32.23059432658338 0 1 0
2944 10 16 0 38.16355699963069 36.20041176921923 31.088529789759807 0 0 1
444 1 3 0 38.34974560284287 37.80957281139152 34.313726311343174 0 0 0
447 1 5 0 39.20434495837805 36.044992726978606 34.613693417362185 0 0 0
438 1 4 0 39.72060834582459 38.484172402726074 33.90275183384962 0 0 0
441 1 14 0 39.72329446492959 38.929143230481024 32.49827135446771 0 0 0
437 1 3 0 39.94074475802998 39.7230280056982 34.67203997710767 0 0 0
439 1 1 0 39.72861797794433 39.59284405460405 35.765933780498024 0 0 0
436 1 8 0 39.14438899252782 40.36671064950413 34.33778136870325 0 0 0
434 1 14 0 41.36399351146479 40.55894347217428 32.826733492324976 0 0 0
440 1 5 0 40.5740984250654 37.78871115963299 34.20064976294847 0 0 0
3106 20 12 0 41.925495396538686 38.64321745567399 32.40980476302184 0 0 1
3094 20 16 0 41.09049225184033 39.334744108786715 32.12136975929924 0 0 1
431 1 4 0 41.29629400340872 40.36044822113313 34.28137127098523 0 0 0
433 1 5 0 42.15174964912253 39.76041819748285 34.663045908789684 0 0 0
430 1 3 0 41.340565432785 41.7188904338886 35.06807188882253 0 0 0
2694 4 14 0 39.5525257270247 36.52606605208595 31.485703006335843 0 1 0
426 1 5 0 42.46517032325978 41.118307072420954 36.67171403541207 0 0 0
424 1 4 0 42.53273512874416 41.930582901498596 35.89068073202187 0 0 0
427 1 9 0 43.63267468010271 41.747944722121396 35.083860767054105 0 0 0
452 1 4 0 38.870972834159346 35.615327475557635 37.17200207191473 0 0 0
459 1 4 0 40.94226408707938 37.115011218721236 37.71164420363129 0 0 0
468 1 5 0 43.49134464150818 35.86730403053433 36.8778793316296 0 0 0
462 1 9 0 40.89797142125076 38.50676948092075 38.027918026224775 0 0 0
3095 20 11 0 41.06047725020754 39.56602180447319 30.650039368753127 0 0 1
428 1 7 0 43.44800755070679 41.06713817212095 34.45382075450751 0 0 0
3098 20 12 0 40.06249831760985 40.03991068921874 30.39511330953529 0 0 1
3097 20 12 0 41.708397039363305 40.45481686902626 30.505084641548542 0 0 1
466 1 4 0 42.81901045566691 35.48160227976294 37.65896634872085 0 0 0
463 1 7 0 40.4634645844668 38.63608110135348 38.89351439596538 0 0 0
956 2 8 0 46.79197890700765 34.34645156929247 32.92331498789845 0 0 1
966 2 1 0 46.151689618288714 34.92492789353252 30.798190424228242 0 0 1
600 1 1 0 45.34152987345283 41.41598101663554 31.66310045883712 0 0 1
963 2 8 0 45.0449753966408 36.37230915316849 30.88933284465925 0 0 1
961 2 9 0 45.53550006045393 37.05855863077958 32.95464928338859 0 0 1
952 2 1 0 49.198901613558526 34.063470326606 34.32696710250506 0 0 1
959 2 1 0 48.2777452340253 35.04105350169369 32.33218669117651 0 0 1
2060 3 1 0 45.75336486534749 39.84038473978771 35.66343407647694 0 0 0
943 2 3 0 50.50021459788267 34.236352708951124 36.79662975400964 0 0 1
962 2 7 0 45.65070400064371 38.00856489522663 32.8628819867235 0 0 1
955 2 7 0 45.816349612677215 36.41007909530576 34.589875078806024 0 0 1
950 2 3 0 48.658561409376276 34.775704737121806 35.11189815399124 0 0 1
597 1 8 0 46.644100051441214 40.366526509009965 32.07727908066622 0 0 1
954 2 9 0 46.42919772563209 35.85225127288973 35.073592436866114 0 0 1
946 2 5 0 50.51397545449086 35.881220261106726 35.247516021509234 0 0 1
957 2 3 0 47.388737471940914 35.31207889172604 32.95299699138186 0 0 1
958 2 4 0 46.61223530274351 36.45935911249084 32.27641151337456 0 0 1
960 2 5 0 47.34362499429603 37.22016993031686 32.06968496109548 0 0 1
953 2 5 0 48.086652564762396 36.766578055294154 34.32894377044975 0 0 1
951 2 4 0 47.66023767185804 35.771510540629656 34.43787691072834 0 0 1
2046 3 1 0 50.72461201837144 38.42769662124528 34.73009102962129 0 0 0
2044 3 3 0 50.58253980138093 39.23594040537483 33.96170874446512 0 0 0
2037 3 3 0 50.654790682049686 37.2283486414608 32.384720177683896 0 0 0
2036 3 8 0 50.237807987486576 36.52084981460912 33.10928690020202 0 0 0
2039 3 1 0 50.24300155887828 36.9589848281299 31.326289700762423 0 0 0
2038 3 4 0 50.031438567623404 38.60728372373177 32.67889023310158 0 0 0
2050 3 8 0 48.90035914250873 38.38256273970025 35.65397849575962 0 0 0
2045 3 4 0 49.62855983758254 40.28858667201632 34.58030000736341 0 0 0
2051 3 3 0 48.54892392320889 39.4763127048764 35.39658581749124 0 0 0
2048 3 14 0 49.01071636506188 40.97472664051954 33.42871427305246 0 0 0
2043 3 8 0 51.526986177577236 39.69178112011697 33.817335566539356 0 0 0
2040 3 5 0 48.981555707331495 38.556367578181096 32.72953450235212 0 0 0
2041 3 9 0 50.318793109669 39.474154874961975 31.5442346511881 0 0 0
2047 3 5 0 50.1629144768695 40.99518615532336 35.140827825627724 0 0 0
2052 3 4 0 47.92705065461905 40.040167966618306 36.63726373990291 0 0 0
2053 3 1 0 47.69553508758652 39.33261708557578 34.759665921635026 0 0 0
2058 3 3 0 46.377509192992335 39.68507749096912 36.5965212114224 0 0 0
944 2 4 0 49.84601209349983 35.365907872829695 35.945381434896426 0 0 1
2054 3 5 0 47.99550761086721 41.15218591457636 36.65902313514993 0 0 0
2042 3 7 0 51.278312418192044 39.53892932021657 31.414818800645108 0 0 0
592 1 4 0 47.02833318321518 41.65356550779242 30.359689905768473 0 0 1
2029 3 8 0 52.245894568338755 35.07058857388028 32.273631267664285 0 0 0
598 1 3 0 46.38915568429183 41.3296999277611 31.70439033092247 0 0 1
947 2 9 0 49.31577408531787 36.26409317740452 36.84523651511857 0 0 1
596 1 7 0 48.56814633635682 41.43398552259606 31.334510363720927 0 0 1
964 2 3 0 46.10026077105477 36.0337206686484 30.889000466885733 0 0 1
2141 4 9 0 51.527183981730374 40.1526530813939 37.14520051997263 0 0 0
2057 3 8 0 46.33819331904188 38.562294708934246 36.79580083878647 0 0 0
2055 3 9 0 48.522587051757725 39.47873159243718 37.848135944828876 0 0 0
2142 4 7 0 51.58519553124349 41.02378496803184 36.77187410541743 0 0 0
595 1 9 0 48.41919633609937 41.34145560104021 30.39468007869326 0 0 1
2056 3 7 0 48.1854358306434 40.037418952223696 38.563394810044855 0 0 0
3013 14 12 0 54.4919276785829 35.20481013440566 37.32204329065852 0 1 -1
1999 3 9 0 30.275181538436524 40.164598664931155 35.07113882449265 1 0 0
2000 3 7 0 30.988818728048024 39.881641973855295 35.62160699403659 1 0 0
1 1 8 0 59.71895637562385 40.70562262414237 30.80105313025764 0 0 1
2031 3 4 0 52.200280181762636 37.27665499298931 32.288967699909165 0 0 0
2034 3 14 0 52.44831514000429 37.73993538735964 30.981325989643636 0 0 0
4 1 1 0 59.287601290125316 40.530790608813895 32.42343291987224 0 0 1
2030 3 3 0 52.86048790159657 35.921228462356886 32.56187376821369 0 0 0
2033 3 5 0 52.6283062769396 37.94584933510578 32.98863021858599 0 0 0
2143 4 8 0 53.72434828466999 40.86336981080841 36.34141887008434 0 0 0
2144 4 3 0 53.70612747057291 40.94099393327353 37.47149945481982 0 0 0
2026 3 5 0 52.73507131278395 36.312375134105935 34.69830464225663 0 0 0
2001 3 8 0 57.30641863489625 40.41809989644922 34.350947815811274 0 0 0
2017 3 4 0 55.80600983582026 34.99009603229609 33.423512738082216 0 0 0
2013 3 14 0 58.973357645632504 36.657641603038456 32.228355186517625 0 0 0
2025 3 1 0 55.07820378488138 35.910539164869206 35.255938794434215 0 0 0
2015 3 8 0 57.471984954847315 35.14908527931173 31.977885433829236 0 0 0
2023 3 3 0 54.845624351934546 35.89734592958887 34.20005621514841 0 0 0
2004 3 1 0 56.773344306764734 39.99450876138543 35.957071276900024 0 0 0
2022 3 8 0 54.96352157581364 36.91685536271817 33.885852852381724 0 0 0
2008 3 8 0 58.07830557037536 38.7839275592736 32.88003366872507 0 0 0
2002 3 3 0 57.55641761052453 39.862185958593955 35.27429666088519 0 0 0
2018 3 1 0 56.259697375155 36.24728346720675 31.793053145174024 0 0 0
2032 3 1 0 53.783988349183254 35.849011159899106 31.861059291467388 0 0 0
2024 3 4 0 53.295739291825775 35.68131455277566 33.99810286309843 0 0 0
2922 8 16 0 53.64933985114066 38.442952176602404 31.011532457669322 1 6 -2
2011 3 1 0 56.46652525988753 38.27414104059493 33.243858550574906 0 0 0
2928 8 12 0 54.334634708438486 37.99056013808096 31.773729734842455 1 6 -2
2016 3 3 0 56.818492670072665 35.80547619696647 32.55412623343394 0 0 0
2010 3 4 0 57.927915738619205 36.63787825492719 33.21417638810775 0 0 0
2009 3 3 0 57.51258352473775 38.0617327864203 33.47336683916601 0 0 0
2806 4 14 0 53.28765939831822 39.71745470530675 31.481525963098242 0 0 0
2805 4 5 0 55.26479685490653 39.75548198594005 32.2037719737609 0 0 0
2803 4 4 0 54.27254601744714 40.25950761267483 32.29556120577701 0 0 0
2012 3 5 0 58.26610608513522 36.02678628762592 34.06588774397438 0 0 0
2003 3 4 0 57.651033463815324 38.327205903006906 34.93079638109453 0 0 0
2807 4 6 0 54.00044037470626 40.16128802258258 33.328506351840424 0 0 0
2005 3 5 0 58.65061697352161 37.96638672840302 35.29675485416375 0 0 0
2006 3 9 0 56.70824928671915 37.63341822725431 35.68407825725582 0 0 0
1996 3 4 0 58.762623040500685 40.53776072925904 36.00331576278124 0 0 0
2007 3 7 0 56.32862473384629 37.042040116773066 35.04204344544286 0 0 0
1998 3 5 0 59.03432169765432 40.0370250447595 36.887300790503375 0 0 0
2139 4 1 0 53.752280981184896 38.41943202385074 37.45342270057317 0 0 0
2802 4 3 0 54.34807453216715 41.74491033295722 32.05328166577802 0 0 0
1995 3 3 0 58.60153712036786 42.0606244601926 36.22076195828741 0 0 0
3005 14 11 0 57.506454345009494 35.14675086758534 37.988428160165256 0 1 -1
3008 14 12 0 57.76446039501285 36.0588802350691 38.572900897290964 0 1 -1
2804 4 1 0 54.032561429212066 42.40562090611826 32.99365446652612 0 0 0
2801 4 8 0 53.539766892211844 41.98264619673186 31.364716076973224 0 0 0
1261 2 5 0 33.59748639957219 42.798575535513514 35.07580701752464 1 0 0
2605 4 8 0 35.69050892029146 43.77278826287587 32.80085622685208 0 0 0
2606 4 3 0 36.73866391512002 44.11443169603183 32.53481722734876 0 0 0
2600 4 4 0 36.71636757469472 45.35580532116157 31.582981456977002 0 0 0
2599 4 3 0 36.00999233276905 46.51786941218949 32.35081108883103 0 0 0
1273 2 4 0 32.64913479265382 47.591075028595995 36.649096906578954 1 0 0
2593 4 4 0 35.960873013168275 47.77443030868149 31.57484095149586 0 0 0
2601 4 1 0 36.49385527208371 46.58667850415005 33.315043315360626 0 0 0
1266 2 4 0 33.14139986641986 45.04681201488219 36.33344751943056 1 0 0
1259 2 4 0 34.1296036255669 42.72943814923675 35.99951667786682 1 0 0
2592 4 3 0 35.03750942257207 48.78913100756394 32.20508418520055 0 0 0
1269 2 9 0 33.4154943269781 44.96366342585773 34.96265178510959 1 0 0
1270 2 7 0 33.58600782071154 45.891949657614106 34.807761568752255 1 0 0
19 1 1 0 32.28277986226034 43.61373683065722 31.489709368210924 1 0 1
2598 4 8 0 34.9524349931579 46.19844500412882 32.49222849825905 0 0 0
16 1 8 0 33.94247190855697 44.49921428532585 31.487422307951167 1 0 1
17 1 3 0 33.32811581726957 43.65379536860284 31.091043431971737 1 0 1
1275 2 5 0 32.089989297587394 47.45187624043876 35.651726871464305 1 0 0
2591 4 8 0 34.1190731052947 48.365248035916004 32.73907179223663 0 0 0
1268 2 5 0 32.06240282598731 45.02666184271213 36.59041881768192 1 0 0
1265 2 3 0 33.7250726898078 43.78352354545708 37.01761285930954 1 0 0
1980 3 8 0 31.289076547620287 45.96226748456104 33.86547983017965 1 0 0
1272 2 3 0 33.58536422953132 46.401145096012485 36.94699877681445 1 0 0
2608 4 1 0 37.155387073157144 44.3730485414186 33.52866786161798 0 0 0