LAMMPS (23 Jun 2022 - Update 1)
OMP_NUM_THREADS environment is not set. Defaulting to 1 thread. (src/comm.cpp:98)
  using 1 OpenMP thread(s) per MPI task
Loaded 1 plugins from C:\Users\HP\AppData\Local\LAMMPS 64-bit 23Jun2022\plugins
# Initialization
units			real
dimension		3
processors		* * *
boundary		p p p
atom_style		full
pair_style		lj/cut 10.0
bond_style		harmonic
angle_style 	harmonic
read_data		after_cross_linking_correct.data
Reading data file ...
  orthogonal box = (30.222448 27.307948 30.19145) to (59.884552 56.970052 59.853554)
  1 by 1 by 1 MPI processor grid
  reading atoms ...
  2988 atoms
  reading velocities ...
  2988 velocities
  scanning bonds ...
  4 = max bonds/atom
  scanning angles ...
  6 = max angles/atom
  reading bonds ...
  3044 bonds
  reading angles ...
  5800 angles
Finding 1-2 1-3 1-4 neighbors ...
  special bond factors lj:    0        0        0       
  special bond factors coul:  0        0        0       
     4 = max # of 1-2 neighbors
     7 = max # of 1-3 neighbors
    16 = max # of 1-4 neighbors
    20 = max # of special neighbors
  special bonds CPU = 0.004 seconds
  read_data CPU = 0.061 seconds

#output

# going from 100-170 in steps of 10

thermo			100
thermo_style	custom step temp vol density


# npt for 150ps
fix			1 all npt temp 373 373 1000 iso 1 1 100
run			150000
Generated 153 of 153 mixed pair_coeff terms from geometric mixing rule
Neighbor list info ...
  update every 1 steps, delay 10 steps, check yes
  max neighbors/atom: 2000, page size: 100000
  master list distance cutoff = 12
  ghost atom cutoff = 12
  binsize = 6, bins = 5 5 5
  1 neighbor lists, perpetual/occasional/extra = 1 0 0
  (1) pair lj/cut, perpetual
      attributes: half, newton on
      pair build: half/bin/newton
      stencil: half/bin/3d
      bin: standard
WARNING: Inconsistent image flags (src/domain.cpp:819)
Per MPI rank memory allocation (min/avg/max) = 23.26 | 23.26 | 23.26 Mbytes
   Step          Temp          Volume        Density    
         0   296.64116      26097.918      1.2032419    
       100   303.33456      25847.023      1.2149216    
       200   299.06096      26049.466      1.2054799    
       300   303.14203      26087.954      1.2037014    
       400   298.85132      25997.89       1.2078714    
       500   298.69748      26044.989      1.2056871    
       600   306.04658      26218.728      1.1976976    
       700   305.057        26298.438      1.1940674    
       800   306.28393      26275.441      1.1951125    
       900   308.84486      26155.67       1.2005851    
      1000   309.50916      26009.874      1.2073148    
      1100   315.27617      26172.854      1.1997968    
      1200   317.12823      26317.298      1.1932117    
      1300   313.8848       26180.248      1.199458     
      1400   325.64067      26239.848      1.1967336    
      1500   331.17372      26320.548      1.1930643    
      1600   322.56113      26357.513      1.1913911    
      1700   328.76279      26378.567      1.1904402    
      1800   331.32921      26198.539      1.1986205    
      1900   331.79805      26346.689      1.1918806    
      2000   331.58825      26096.155      1.2033231    
      2100   331.98742      26042.922      1.2057828    
      2200   340.23927      26236.329      1.1968941    
      2300   331.64908      26307.126      1.193673     
      2400   339.4362       26264.73       1.1955999    
      2500   340.91873      26590.153      1.1809675    
      2600   335.61825      26280.134      1.1948991    
      2700   340.60624      26285.166      1.1946703    
      2800   346.64392      26455.319      1.1869865    
      2900   339.76194      26248.644      1.1963326    
      3000   353.84644      26381.785      1.190295     
      3100   360.20726      26388.953      1.1899717    
      3200   351.88081      26397.449      1.1895887    
      3300   352.37031      26434.254      1.1879324    
      3400   362.60686      26474.153      1.1861421    
      3500   358.89834      26620.679      1.1796133    
      3600   360.29553      26520.983      1.1840476    
      3700   355.35609      26499.576      1.1850041    
      3800   359.72233      26305.99       1.1937246    
      3900   365.80956      26405.203      1.1892394    
      4000   365.63277      26569.347      1.1818923    
      4100   371.54149      26514.926      1.1843181    
      4200   364.10551      26301.043      1.1939491    
      4300   363.80193      26551.956      1.1826664    
      4400   367.57481      26658.716      1.1779302    
      4500   375.2486       26384.98       1.1901509    
      4600   371.42316      26423.605      1.1884112    
      4700   370.32187      26332.008      1.1925451    
      4800   375.593        26622.147      1.1795483    
      4900   376.03095      26608.79       1.1801404    
      5000   377.66216      26635.28       1.1789667    
      5100   379.45351      26626.056      1.1793751    
      5200   382.17284      26734.253      1.174602     
      5300   375.81335      26563.25       1.1821636    
      5400   378.49754      26578.393      1.1814901    
      5500   377.94986      26574.908      1.181645     
      5600   383.52446      26558.764      1.1823633    
      5700   382.02255      26486.928      1.18557      
      5800   386.38499      26498.095      1.1850704    
      5900   381.29474      26693.531      1.1763939    
      6000   378.48303      26726.56       1.1749401    
      6100   381.91781      26666.712      1.177577     
      6200   382.60334      26553.022      1.182619     
      6300   377.86093      26542.366      1.1830937    
      6400   381.31187      26389.208      1.1899602    
      6500   386.5497       26287.277      1.1945744    
      6600   383.691        26476.989      1.186015     
      6700   382.1142       26635.381      1.1789622    
      6800   379.92126      26540.682      1.1831688    
      6900   381.04146      26643.851      1.1785874    
      7000   377.77241      26753.884      1.1737401    
      7100   379.54788      26748.383      1.1739815    
      7200   379.29348      26662.738      1.1777525    
      7300   377.25135      26792.734      1.1720382    
      7400   372.28369      26455.609      1.1869735    
      7500   383.28114      26428.857      1.188175     
      7600   371.64374      26587.966      1.1810647    
      7700   372.93036      26491.081      1.1853841    
      7800   375.41012      26564.461      1.1821097    
      7900   371.85321      26737.905      1.1744416    
      8000   379.30254      26671.778      1.1773534    
      8100   368.40778      26491.745      1.1853544    
      8200   367.02058      26640.067      1.1787548    
      8300   367.43266      26744.304      1.1741606    
      8400   365.94826      26660.235      1.1778631    
      8500   352.74592      26544.317      1.1830068    
      8600   363.57624      26733.92       1.1746166    
      8700   366.44759      26883.37       1.1680867    
      8800   365.1442       26843          1.1698434    
      8900   365.6604       26831.935      1.1703259    
      9000   369.6139       26467.617      1.186435     
      9100   361.14185      26370.755      1.1907929    
      9200   367.06764      26522.378      1.1839854    
      9300   369.37767      26330.311      1.192622     
      9400   369.96648      26238.301      1.1968042    
      9500   367.02377      26336.563      1.1923389    
      9600   374.67416      26626.092      1.1793735    
      9700   362.00438      26645.225      1.1785266    
      9800   368.39285      26662.941      1.1777436    
      9900   365.39887      26607.34       1.1802047    
     10000   365.49945      26714.714      1.1754611    
     10100   366.49049      26658.059      1.1779592    
     10200   368.52869      26616.504      1.1797983    
     10300   372.05079      26564.97       1.1820871    
     10400   368.1153       26558.725      1.182365     
     10500   374.04621      26536.326      1.183363     
     10600   371.75763      26931.929      1.1659806    
     10700   365.44235      26643.277      1.1786128    
     10800   379.49031      26408.701      1.1890819    
     10900   375.94458      26435.979      1.1878549    
     11000   366.32546      26469.045      1.186371     
     11100   374.01996      26614.386      1.1798922    
     11200   372.53386      26377.372      1.1904941    
     11300   384.06316      26506.876      1.1846778    
     11400   374.58693      26586.894      1.1811123    
     11500   373.10502      26507.816      1.1846358    
     11600   374.9294       26545.522      1.1829531    
     11700   378.39515      26722.58       1.1751151    
     11800   371.25644      26650.046      1.1783134    
     11900   382.84163      26513.745      1.1843709    
     12000   370.96049      26440.229      1.187664     
     12100   375.39012      26485.748      1.1856228    
     12200   384.58532      26741.42       1.1742872    
     12300   378.76487      26565.083      1.182082     
     12400   379.65172      26721.223      1.1751748    
     12500   387.34243      26931.042      1.166019     
     12600   374.4157       26759.162      1.1735086    
     12700   383.54591      27181.564      1.1552723    
     12800   379.93857      26958.058      1.1648505    
     12900   387.9795       26948.226      1.1652755    
     13000   372.74931      26786.442      1.1723135    
     13100   385.63789      27080.233      1.1595952    
     13200   373.31239      27184.484      1.1551482    
     13300   370.60632      27137.443      1.1571505    
     13400   378.759        27253.463      1.1522245    
     13500   378.18525      27049.583      1.1609091    
     13600   374.12462      26783.475      1.1724434    
     13700   368.30716      26699.941      1.1761115    
     13800   378.0488       26576.852      1.1815586    
     13900   372.95507      26819.876      1.1708521    
     14000   375.79531      26953.228      1.1650592    
     14100   373.8968       27046.974      1.1610211    
     14200   367.80381      26940.645      1.1656034    
     14300   363.06051      26646.021      1.1784914    
     14400   368.39203      26644.663      1.1785515    
     14500   369.92082      26682.173      1.1768947    
     14600   368.78836      26734.349      1.1745978    
     14700   373.0647       26873.944      1.1684964    
     14800   373.09036      26632.022      1.1791109    
     14900   368.63629      26840.499      1.1699525    
     15000   366.57415      26981.428      1.1638416    
     15100   373.35308      26854.702      1.1693337    
     15200   370.5068       26835.474      1.1701715    
     15300   364.23245      26660.618      1.1778462    
     15400   366.96596      26747.97       1.1739996    
     15500   365.39288      26710.162      1.1756614    
     15600   370.54342      26866.975      1.1687995    
     15700   368.54235      27033.172      1.1616138    
     15800   366.34741      27100.554      1.1587257    
     15900   366.67763      26837.756      1.170072     
     16000   376.93375      26674.955      1.1772131    
     16100   375.36143      26707.481      1.1757795    
     16200   370.26452      26684.733      1.1767818    
     16300   366.7693       26756.271      1.1736354    
     16400   368.23265      26900.625      1.1673375    
     16500   367.92868      27081.402      1.1595451    
     16600   370.94964      27289.297      1.1507115    
     16700   366.57835      27384.58       1.1467077    
     16800   368.47644      26975.079      1.1641155    
     16900   365.19062      26941.196      1.1655796    
     17000   373.92401      26955.723      1.1649514    
     17100   371.29875      27077.022      1.1597327    
     17200   377.38222      27161.893      1.1561089    
     17300   369.84979      26984.974      1.1636886    
     17400   371.44624      26883.052      1.1681005    
     17500   378.66218      26687.131      1.176676     
     17600   375.93751      26656.219      1.1780406    
     17700   372.93593      26953.542      1.1650457    
     17800   374.20036      27116.944      1.1580253    
     17900   375.43343      27122.639      1.1577821    
     18000   377.23022      27253.363      1.1522287    
     18100   373.96546      27066.834      1.1601692    
     18200   375.41038      26872.065      1.1685781    
     18300   379.03788      26813.955      1.1711106    
     18400   377.97792      26825.214      1.1706191    
     18500   388.33579      26830.619      1.1703833    
     18600   376.53991      26977.706      1.1640022    
     18700   375.59948      26869.326      1.1686973    
     18800   386.0361       26842.418      1.1698688    
     18900   368.25752      26946.32       1.1653579    
     19000   372.86464      26778.495      1.1726614    
     19100   381.67183      26843.079      1.16984      
     19200   379.12832      26904.943      1.1671501    
     19300   374.51973      26903.989      1.1671915    
     19400   378.64039      26784.408      1.1724025    
     19500   375.38017      26771.869      1.1729516    
     19600   372.50566      27041.555      1.1612538    
     19700   378.93113      26841.844      1.1698938    
     19800   379.86111      26860.196      1.1690945    
     19900   372.53241      27023.027      1.1620499    
     20000   371.66881      26779.414      1.1726211    
     20100   372.32763      26803.935      1.1715484    
     20200   379.00969      26720.173      1.175221     
     20300   372.94329      26975.757      1.1640863    
     20400   361.75922      27021.416      1.1621192    
     20500   380.26982      26862.692      1.1689859    
     20600   371.62527      26853.045      1.1694058    
     20700   371.47855      26746.1        1.1740817    
     20800   368.18695      26930.984      1.1660216    
     20900   366.94829      26697.009      1.1762406    
     21000   364.54185      26973.404      1.1641878    
     21100   365.66931      26885.391      1.1679989    
     21200   371.73292      26617.833      1.1797395    
     21300   369.09292      26497.298      1.185106     
     21400   365.79802      26653.921      1.1781421    
     21500   362.35736      26554.61       1.1825482    
     21600   374.54401      26677.186      1.1771147    
     21700   368.38625      27117.411      1.1580054    
     21800   373.16913      26890.701      1.1677682    
     21900   374.69072      26497.801      1.1850835    
     22000   371.12752      26621.994      1.179555     
     22100   365.82563      26526.508      1.183801     
     22200   367.13264      26359.983      1.1912795    
     22300   377.32328      26292.273      1.1943474    
     22400   368.92184      26460.058      1.186774     
     22500   368.31318      26597.969      1.1806205    
     22600   366.84645      26500.4        1.1849673    
     22700   373.9706       26742.308      1.1742482    
     22800   378.82066      26569.369      1.1818914    
     22900   380.79666      26325.943      1.1928199    
     23000   376.00485      26522.338      1.1839871    
     23100   377.1095       26750.188      1.1739023    
     23200   375.72221      26800.553      1.1716963    
     23300   387.66566      26694.211      1.176364     
     23400   378.11474      26777.907      1.1726871    
     23500   375.42686      27068.485      1.1600984    
     23600   382.85311      27007.856      1.1627027    
     23700   377.04519      26958.458      1.1648332    
     23800   381.55437      27015.502      1.1623736    
     23900   387.36398      26716.854      1.175367     
     24000   378.23512      26759.814      1.17348      
     24100   382.52911      26656.223      1.1780404    
     24200   384.92273      26607.701      1.1801887    
     24300   384.36642      26555.055      1.1825284    
     24400   377.5409       26532.319      1.1835417    
     24500   375.70389      26585.396      1.1811788    
     24600   379.84627      26697.795      1.176206     
     24700   382.97344      27002.139      1.1629489    
     24800   376.05906      26963.199      1.1646284    
     24900   381.57236      26850.745      1.169506     
     25000   375.83041      27090.653      1.1591491    
     25100   375.56294      26985.285      1.1636752    
     25200   380.47382      26840.783      1.1699401    
     25300   379.36336      26769.689      1.1730471    
     25400   380.31603      26782.707      1.172477     
     25500   380.226        26616.268      1.1798088    
     25600   374.28849      26557.026      1.1824407    
     25700   375.85443      26703.655      1.1759479    
     25800   378.22402      27029.126      1.1617877    
     25900   376.68814      27068.314      1.1601058    
     26000   383.44877      26765.861      1.1732149    
     26100   377.31427      26871.33       1.1686101    
     26200   378.69288      26979.711      1.1639156    
     26300   381.04329      26908.583      1.1669922    
     26400   368.78395      27035.552      1.1615116    
     26500   374.03004      27037.919      1.1614099    
     26600   374.05094      27049.829      1.1608986    
     26700   373.42643      26819.386      1.1708735    
     26800   371.83302      26862.41       1.1689981    
     26900   378.4925       26718.808      1.175281     
     27000   374.55371      26802.936      1.1715921    
     27100   382.91037      26936.497      1.1657829    
     27200   379.39547      26742.091      1.1742577    
     27300   375.08206      26882.689      1.1681163    
     27400   376.28069      27012.688      1.1624947    
     27500   370.85223      27014.403      1.1624209    
     27600   370.78703      26945.065      1.1654122    
     27700   366.45918      26973.978      1.164163     
     27800   372.68959      27010.39       1.1625936    
     27900   366.00108      26794.991      1.1719394    
     28000   366.72496      27003.138      1.1629058    
     28100   371.06005      26816.315      1.1710075    
     28200   371.17736      26712.605      1.1755539    
     28300   367.75049      26838.706      1.1700306    
     28400   364.34434      26935.955      1.1658064    
     28500   368.33069      26701.717      1.1760332    
     28600   361.7699       27021.078      1.1621338    
     28700   368.34266      26861.479      1.1690387    
     28800   374.20025      26612.57       1.1799727    
     28900   372.67822      26652.563      1.1782022    
     29000   367.05142      26866.483      1.1688209    
     29100   367.49991      26994.984      1.1632571    
     29200   364.46472      26863.466      1.1689522    
     29300   366.59407      26922.64       1.1663829    
     29400   370.43462      27057.999      1.160548     
     29500   370.72434      26975.965      1.1640772    
     29600   372.55327      27072.996      1.1599052    
     29700   377.23098      27009.594      1.1626279    
     29800   368.35214      26729.006      1.1748326    
     29900   377.27033      26792.712      1.1720391    
     30000   370.68826      27134.913      1.1572584    
     30100   376.18051      26983.385      1.1637571    
     30200   373.28348      26852.784      1.1694172    
     30300   373.15658      26800.257      1.1717092    
     30400   376.25282      26659.331      1.1779031    
     30500   376.54032      26766.561      1.1731842    
     30600   372.45826      27079.245      1.1596375    
     30700   369.28471      27009.481      1.1626328    
     30800   375.6528       26929.079      1.166104     
     30900   377.39516      27054.792      1.1606856    
     31000   375.90268      27068.289      1.1601068    
     31100   371.61199      26975.554      1.164095     
     31200   373.4985       26749.948      1.1739128    
     31300   373.9029       27022.327      1.1620801    
     31400   379.11169      26919.932      1.1665003    
     31500   372.0607       26877.671      1.1683344    
     31600   372.23968      26897.535      1.1674715    
     31700   379.09148      26820.252      1.1708357    
     31800   375.18607      27078.503      1.1596693    
     31900   377.06011      27156.827      1.1563246    
     32000   372.34708      27195.349      1.1546867    
     32100   376.46899      27258.697      1.1520033    
     32200   367.98227      27330.284      1.1489858    
     32300   371.8595       26971.295      1.1642788    
     32400   377.34533      27011.222      1.1625578    
     32500   382.01815      26787.508      1.1722668    
     32600   375.91016      26760.143      1.1734656    
     32700   373.81779      26866.923      1.1688018    
     32800   371.95939      26810.278      1.1712713    
     32900   367.15558      26773.767      1.1728685    
     33000   373.28341      26916.349      1.1666555    
     33100   370.09723      26836.838      1.170112     
     33200   373.77577      26993.38       1.1633262    
     33300   368.7928       26888.836      1.1678493    
     33400   378.07932      26682.358      1.1768865    
     33500   370.80704      26699.118      1.1761477    
     33600   365.25885      26754.477      1.1737141    
     33700   370.60427      27022.747      1.162062     
     33800   375.51953      27068.038      1.1601176    
     33900   368.84789      26963.884      1.1645988    
     34000   359.98005      26975.094      1.1641149    
     34100   367.11627      27008.035      1.162695     
     34200   360.84888      26910.207      1.1669218    
     34300   367.17731      27133.764      1.1573075    
     34400   362.30589      27124.535      1.1577012    
     34500   370.43379      26820.672      1.1708173    
     34600   369.28118      26580.369      1.1814023    
     34700   377.62177      26566.956      1.1819987    
     34800   370.80717      26758.7        1.1735289    
     34900   367.94904      26872.101      1.1685766    
     35000   366.51933      26923.792      1.166333     
     35100   365.01552      27004.792      1.1628347    
     35200   366.3154       26809.394      1.1713099    
     35300   371.88577      26679.005      1.1770344    
     35400   381.61877      26893.927      1.1676282    
     35500   374.49189      26987.095      1.1635972    
     35600   368.45213      27101.419      1.1586887    
     35700   372.00213      27114.236      1.158141     
     35800   366.15491      27099.735      1.1587607    
     35900   373.82778      27235.594      1.1529804    
     36000   371.31381      27076.023      1.1597755    
     36100   372.31164      26925.222      1.1662711    
     36200   373.39521      26827.205      1.1705322    
     36300   379.54897      26685.152      1.1767633    
     36400   371.13677      26981.056      1.1638576    
     36500   376.82652      26831.36       1.1703509    
     36600   372.09941      26872.347      1.1685659    
     36700   372.96162      26895.873      1.1675437    
     36800   373.34646      26944.475      1.1654377    
     36900   379.40717      26941.103      1.1655836    
     37000   374.94848      26842.652      1.1698586    
     37100   371.85461      26791.681      1.1720843    
     37200   372.04118      26997.06       1.1631677    
     37300   372.53191      26897.803      1.1674599    
     37400   377.32163      26641.762      1.1786798    
     37500   378.39885      26646.844      1.178455     
     37600   369.66575      26914.764      1.1667242    
     37700   383.36714      26597.114      1.1806585    
     37800   374.97765      26669.683      1.1774459    
     37900   378.66313      26591.032      1.1809285    
     38000   374.58571      26488.283      1.1855093    
     38100   376.45544      26812.804      1.1711609    
     38200   372.27548      26850.599      1.1695124    
     38300   378.23936      26574.097      1.1816811    
     38400   372.15597      26931.921      1.165981     
     38500   373.59999      26879.604      1.1682504    
     38600   382.35582      26744.071      1.1741708    
     38700   372.66995      26874.68       1.1684644    
     38800   382.81118      26891.194      1.1677469    
     38900   375.8832       26795.325      1.1719249    
     39000   374.09024      26783.177      1.1724564    
     39100   377.9884       26823.386      1.1706988    
     39200   378.3328       27001.034      1.1629965    
     39300   379.83126      26886.383      1.1679558    
     39400   375.12952      26944.094      1.1654542    
     39500   378.60653      27008.507      1.1626747    
     39600   377.77311      26882.803      1.1681113    
     39700   379.50937      26889.112      1.1678373    
     39800   373.87384      26780.112      1.1725906    
     39900   370.63997      26852.908      1.1694118    
     40000   374.40767      26807.732      1.1713825    
     40100   371.14261      26885.876      1.1679778    
     40200   380.23564      26891.71       1.1677244    
     40300   379.53521      26999.853      1.1630474    
     40400   370.13008      26795.482      1.171918     
     40500   374.47508      26673.212      1.17729      
     40600   364.55095      26861.588      1.1690339    
     40700   374.00831      26858.067      1.1691872    
     40800   370.6666       26808.462      1.1713506    
     40900   365.84306      26781.311      1.1725381    
     41000   370.65674      26609.209      1.1801218    
     41100   374.40776      26763.821      1.1733044    
     41200   364.37493      26782.102      1.1725035    
     41300   377.10577      26885.438      1.1679969    
     41400   364.28136      26836.766      1.1701152    
     41500   368.99971      26851.435      1.169476     
     41600   371.16546      26598.303      1.1806057    
     41700   371.18016      26768.26       1.1731098    
     41800   365.87697      26556.698      1.1824553    
     41900   370.06264      26559.888      1.1823133    
     42000   368.16637      26910.981      1.1668883    
     42100   366.84115      26917.012      1.1666268    
     42200   363.82667      26834.686      1.1702059    
     42300   370.37005      26690.834      1.1765128    
     42400   364.35392      26750.726      1.1738787    
     42500   362.2721       26721.646      1.1751562    
     42600   367.62081      26720.176      1.1752208    
     42700   368.2253       26781.615      1.1725248    
     42800   371.75073      26855.152      1.1693141    
     42900   371.6042       26951.545      1.165132     
     43000   362.96172      26725.464      1.1749883    
     43100   371.64245      26646.218      1.1784827    
     43200   377.25027      26673.753      1.1772662    
     43300   371.06133      26800.752      1.1716876    
     43400   370.56823      26649.824      1.1783233    
     43500   374.0302       26686.81       1.1766902    
     43600   378.5124       26781.074      1.1725485    
     43700   381.19255      26463.803      1.186606     
     43800   375.71274      26823.177      1.170708     
     43900   374.43895      26563.338      1.1821597    
     44000   382.74718      26598.861      1.1805809    
     44100   379.2139       26709.694      1.175682     
     44200   379.68141      26737.573      1.1744561    
     44300   374.37402      26711.478      1.1756035    
     44400   372.34893      26660.796      1.1778383    
     44500   376.64999      26869.299      1.1686984    
     44600   380.46912      27053.5        1.160741     
     44700   376.89301      26975.562      1.1640947    
     44800   373.15602      27101.643      1.1586791    
     44900   378.18389      27069.934      1.1600363    
     45000   380.53348      27038.164      1.1613994    
     45100   383.7774       26921.2        1.1664453    
     45200   372.47366      26832.111      1.1703182    
     45300   380.16836      26796.278      1.1718832    
     45400   373.98659      26756.381      1.1736306    
     45500   375.67024      26778.983      1.17264      
     45600   379.43177      26668.854      1.1774825    
     45700   379.65778      26443.177      1.1875316    
     45800   377.20228      26374.955      1.1906033    
     45900   371.57727      26627.635      1.1793052    
     46000   373.74175      26458.755      1.1868324    
     46100   378.2744       26609.332      1.1801163    
     46200   369.90739      26739.888      1.1743545    
     46300   373.64398      26690.9        1.1765099    
     46400   371.31559      26666.71       1.1775771    
     46500   368.06638      26702.01       1.1760204    
     46600   372.23274      26710.837      1.1756317    
     46700   372.53476      26705.251      1.1758777    
     46800   368.80052      26820.807      1.1708114    
     46900   374.42881      26825.702      1.1705978    
     47000   372.21845      26899.527      1.1673851    
     47100   371.84961      26960.859      1.1647295    
     47200   373.97046      26713.356      1.1755208    
     47300   370.18724      26803.463      1.171569     
     47400   367.42241      26803.2        1.1715805    
     47500   371.10144      27046.893      1.1610246    
     47600   366.49456      27126.165      1.1576317    
     47700   365.38961      27120.066      1.157892     
     47800   370.82462      26924.702      1.1662936    
     47900   367.3529       26941.171      1.1655807    
     48000   372.01875      26984.119      1.1637255    
     48100   366.78707      27056.537      1.1606107    
     48200   372.06955      26774.296      1.1728453    
     48300   373.93828      27100.215      1.1587402    
     48400   367.3354       27110.822      1.1582868    
     48500   372.2706       26879.729      1.1682449    
     48600   364.66296      27067.237      1.1601519    
     48700   370.93279      27018.439      1.1622473    
     48800   368.74794      27071.182      1.1599829    
     48900   373.11225      26847.584      1.1696437    
     49000   374.98685      26861.243      1.1690489    
     49100   367.78251      26694.032      1.1763718    
     49200   374.09282      26325.689      1.1928314    
     49300   381.19706      26207.61       1.1982057    
     49400   370.35881      26645.167      1.1785292    
     49500   366.86225      26593.557      1.1808164    
     49600   371.60157      26815.452      1.1710452    
     49700   371.67247      26888.329      1.1678713    
     49800   368.32966      26898.738      1.1674194    
     49900   378.82382      26729.158      1.1748259    
     50000   372.11036      26648.136      1.1783979    
     50100   377.36414      26706.371      1.1758283    
     50200   368.6645       26863.195      1.168964     
     50300   373.65939      26928.442      1.1661316    
     50400   371.95346      26866.313      1.1688283    
     50500   367.55341      26900.393      1.1673475    
     50600   377.38012      26872.545      1.1685573    
     50700   371.80305      26960.268      1.164755     
     50800   382.57455      26898.105      1.1674468    
     50900   374.02686      26796.707      1.1718644    
     51000   374.98337      26745.353      1.1741145    
     51100   373.02683      26764.306      1.1732831    
     51200   382.01686      27027.814      1.1618441    
     51300   371.431        26836.261      1.1701372    
     51400   368.35694      26758.974      1.1735169    
     51500   383.22625      26779.456      1.1726193    
     51600   374.81876      26710.202      1.1756597    
     51700   373.69367      26672.862      1.1773055    
     51800   379.04545      26819.237      1.17088      
     51900   378.76327      26866.575      1.1688169    
     52000   376.92098      26959.334      1.1647954    
     52100   370.52681      26748.915      1.1739582    
     52200   384.06895      26727.086      1.174917     
     52300   377.34564      26736.609      1.1744985    
     52400   376.70045      26794.683      1.1719529    
     52500   374.339        27029.324      1.1617792    
     52600   378.47693      26906.744      1.167072     
     52700   374.70076      26978.675      1.1639603    
     52800   374.61652      27038.48       1.1613858    
     52900   375.3986       27149.492      1.156637     
     53000   381.63818      27077.941      1.1596933    
     53100   376.04627      27058.67       1.1605192    
     53200   372.13953      27029.743      1.1617612    
     53300   372.2546       26892.653      1.1676835    
     53400   378.91558      27056.335      1.1606194    
     53500   373.1451       27221.198      1.1535902    
     53600   378.65251      27008.066      1.1626937    
     53700   378.66678      26914.652      1.1667291    
     53800   380.12534      26804.004      1.1715454    
     53900   367.53337      26972.092      1.1642444    
     54000   372.6163       26785.23       1.1723665    
     54100   373.98108      27078.508      1.159669     
     54200   369.292        27020.269      1.1621685    
     54300   373.85391      27061.684      1.16039      
     54400   363.60176      27009.982      1.1626112    
     54500   372.55497      26900.554      1.1673405    
     54600   374.1959       27023.301      1.1620382    
     54700   370.53292      26942.45       1.1655253    
     54800   365.36256      26633.853      1.1790298    
     54900   368.92843      26893.499      1.1676468    
     55000   360.60379      27021.955      1.1620961    
     55100   372.85263      27052.491      1.1607843    
     55200   370.3507       26964.879      1.1645558    
     55300   366.58509      26738.185      1.1744293    
     55400   364.76937      26717.459      1.1753404    
     55500   367.82555      26897.139      1.1674888    
     55600   364.61402      27048.781      1.1609435    
     55700   366.07514      27047.04       1.1610183    
     55800   373.79517      27221.836      1.1535632    
     55900   367.95565      27027.916      1.1618398    
     56000   367.62319      27109.068      1.1583618    
     56100   367.95734      27069.944      1.1600359    
     56200   369.50555      26785.534      1.1723532    
     56300   370.26202      26931.078      1.1660175    
     56400   373.1948       26865.096      1.1688813    
     56500   369.88739      26749.223      1.1739447    
     56600   366.03583      26935.874      1.1658099    
     56700   368.12087      27060.933      1.1604222    
     56800   374.37964      27195.322      1.1546878    
     56900   372.04259      27240.969      1.152753     
     57000   371.60109      27087.101      1.1593012    
     57100   371.25345      26997.5        1.1631487    
     57200   377.6792       26832.354      1.1703076    
     57300   377.79029      27008.896      1.1626579    
     57400   374.58366      27226.677      1.1533581    
     57500   382.04391      27006.322      1.1627688    
     57600   377.66364      27206.782      1.1542014    
     57700   378.80517      27113.748      1.1581618    
     57800   379.1947       27233.441      1.1530716    
     57900   380.46929      26943.627      1.1654744    
     58000   380.18925      26950.346      1.1651838    
     58100   386.669        27120.364      1.1578793    
     58200   378.24738      27074.798      1.159828     
     58300   383.22466      26780.972      1.1725529    
     58400   379.00149      26647.56       1.1784234    
     58500   381.27477      27075.873      1.1597819    
     58600   381.31674      26995.262      1.1632451    
     58700   378.97257      26831.873      1.1703286    
     58800   374.53641      27003.624      1.1628849    
     58900   374.46309      26953.123      1.1650638    
     59000   376.61551      26863.437      1.1689534    
     59100   373.44909      27125.184      1.1576735    
     59200   371.85272      26996.668      1.1631845    
     59300   371.8391       26863.05       1.1689703    
     59400   372.7979       26711.169      1.1756171    
     59500   383.42119      26653.154      1.178176     
     59600   369.89541      26864.682      1.1688993    
     59700   383.21326      26718.95       1.1752747    
     59800   371.00346      26730.882      1.1747501    
     59900   374.09652      26868.279      1.1687428    
     60000   369.85054      26992.486      1.1633648    
     60100   366.43849      27213.007      1.1539374    
     60200   365.2572       27166.234      1.1559242    
     60300   366.22046      27088.466      1.1592427    
     60400   372.32551      27032.677      1.1616351    
     60500   374.50692      27007.077      1.1627362    
     60600   371.82831      26731.412      1.1747269    
     60700   369.15142      26759.033      1.1735143    
     60800   371.95283      26857.595      1.1692077    
     60900   368.56317      26992.726      1.1633544    
     61000   365.66997      27241.781      1.1527186    
     61100   376.49763      26970.854      1.1642978    
     61200   367.31654      27062.13       1.1603709    
     61300   368.77746      27103.728      1.1585899    
     61400   375.04367      26867.598      1.1687724    
     61500   368.68867      26789.808      1.1721662    
     61600   371.0035       26870.057      1.1686655    
     61700   371.34616      26849.818      1.1695464    
     61800   375.36419      26697.132      1.1762352    
     61900   369.65613      27035.427      1.161517     
     62000   369.84195      27177.213      1.1554573    
     62100   367.26698      26969.736      1.1643461    
     62200   378.01882      26426.169      1.1882959    
     62300   370.88558      26543.991      1.1830213    
     62400   370.01846      26662.883      1.1777461    
     62500   370.1834       26614.353      1.1798937    
     62600   368.57452      26650.821      1.1782792    
     62700   364.98633      26556.424      1.1824675    
     62800   367.76336      26322.625      1.1929702    
     62900   365.23003      26581.681      1.1813439    
     63000   370.5824       26671.743      1.1773549    
     63100   368.33626      26530.901      1.183605     
     63200   362.93654      26365.735      1.1910196    
     63300   362.67112      26477.615      1.185987     
     63400   366.59713      26549.72       1.1827661    
     63500   369.57739      26498.31       1.1850608    
     63600   369.65174      26501.335      1.1849255    
     63700   370.51432      26424.372      1.1883767    
     63800   366.76344      26329.817      1.1926443    
     63900   362.8742       26383.718      1.1902078    
     64000   368.97095      26500.815      1.1849487    
     64100   364.36815      26371.594      1.190755     
     64200   368.78424      26509.295      1.1845697    
     64300   364.6634       26535.068      1.1834191    
     64400   373.26981      26674.47       1.1772345    
     64500   365.17792      26624.408      1.1794481    
     64600   374.76198      26520.629      1.1840634    
     64700   373.28841      26543.616      1.183038     
     64800   369.55573      26506.508      1.1846942    
     64900   365.37161      26453.449      1.1870705    
     65000   367.83254      26647.691      1.1784176    
     65100   374.40348      26945.367      1.1653991    
     65200   375.61792      26787.325      1.1722748    
     65300   368.01295      26831.293      1.1703539    
     65400   374.7976       26793          1.1720266    
     65500   369.79987      26905.106      1.167143     
     65600   370.51088      26619.53       1.1796642    
     65700   377.62251      26699.048      1.1761508    
     65800   380.02388      26868.636      1.1687273    
     65900   372.7922       26912.301      1.166831     
     66000   373.66497      26740.276      1.1743374    
     66100   378.97451      26764.723      1.1732648    
     66200   376.41528      26664.7        1.1776659    
     66300   373.42497      26556.184      1.1824782    
     66400   376.01789      26757.156      1.1735966    
     66500   372.94874      26608.445      1.1801557    
     66600   377.58752      26894.239      1.1676147    
     66700   374.70274      26754.338      1.1737202    
     66800   381.58531      26629.254      1.1792335    
     66900   371.91508      26594.319      1.1807825    
     67000   374.95237      26640.403      1.1787399    
     67100   373.28403      27048.648      1.1609493    
     67200   372.0665       26958.699      1.1648228    
     67300   374.5644       26814.945      1.1710674    
     67400   374.69152      26839.52       1.1699951    
     67500   379.92258      26774.081      1.1728547    
     67600   377.3542       26957.697      1.1648661    
     67700   375.10014      26675.412      1.177193     
     67800   375.8773       26631.682      1.179126     
     67900   375.14974      26640.254      1.1787465    
     68000   377.43741      26932.767      1.1659444    
     68100   376.13143      26550.611      1.1827264    
     68200   373.41392      26800.329      1.171706     
     68300   371.39723      26845.427      1.1697377    
     68400   368.78735      26813.666      1.1711232    
     68500   368.48382      26780.995      1.1725519    
     68600   365.73326      26918.121      1.1665787    
     68700   369.46799      26878.377      1.1683037    
     68800   367.76503      26872.128      1.1685754    
     68900   365.3324       26764.016      1.1732958    
     69000   367.65209      26849.433      1.1695631    
     69100   365.49064      26999.346      1.1630692    
     69200   361.52337      27072.501      1.1599264    
     69300   363.86195      26879.141      1.1682705    
     69400   360.16677      26952.251      1.1651015    
     69500   359.84948      27037.083      1.1614459    
     69600   366.18306      27002.934      1.1629146    
     69700   359.92837      26971.527      1.1642688    
     69800   367.64966      27071.487      1.1599698    
     69900   360.4435       27099.199      1.1587836    
     70000   373.92154      27118.013      1.1579797    
     70100   372.62571      26939.844      1.165638     
     70200   360.34759      26823.602      1.1706894    
     70300   375.69925      26666.339      1.1775935    
     70400   366.93395      26664.15       1.1776902    
     70500   369.92816      26771.569      1.1729648    
     70600   367.51102      26705.458      1.1758685    
     70700   369.02075      26864.543      1.1689053    
     70800   365.03676      26852.719      1.16942      
     70900   378.62615      26876.47       1.1683866    
     71000   369.61923      26785.372      1.1723603    
     71100   372.50376      27204.835      1.1542841    
     71200   371.95361      27030.899      1.1617116    
     71300   369.45412      26874.406      1.1684763    
     71400   372.12796      26892.495      1.1676904    
     71500   376.97514      26808.639      1.1713428    
     71600   364.84055      26664.825      1.1776604    
     71700   368.65341      26611.087      1.1800385    
     71800   370.35569      26605.763      1.1802746    
     71900   369.57779      26807.878      1.1713761    
     72000   374.38591      26804.78       1.1715115    
     72100   369.08086      26922.276      1.1663987    
     72200   377.81393      26746.079      1.1740827    
     72300   379.04007      26686.822      1.1766897    
     72400   378.94007      26632.176      1.1791041    
     72500   380.77605      26796.493      1.1718738    
     72600   372.90123      26898.037      1.1674498    
     72700   378.18245      26817.242      1.1709671    
     72800   379.89855      26800.524      1.1716975    
     72900   376.80166      26811.769      1.1712061    
     73000   377.82887      26917.627      1.1666001    
     73100   376.09016      26821.609      1.1707764    
     73200   370.9927       26851.379      1.1694784    
     73300   376.26877      26874.243      1.1684834    
     73400   372.70723      27050.233      1.1608812    
     73500   375.64882      27136.419      1.1571942    
     73600   374.07995      26870.55       1.168644     
     73700   378.57541      27050.141      1.1608852    
     73800   374.30839      26963.805      1.1646022    
     73900   368.54588      26689.965      1.1765511    
     74000   369.06954      27054.76       1.160687     
     74100   373.89338      26669.987      1.1774324    
     74200   372.24086      26590.571      1.1809489    
     74300   368.19418      26673.938      1.177258     
     74400   368.98381      26774.667      1.1728291    
     74500   374.43454      26673.485      1.177278     
     74600   365.9729       26475.719      1.1860719    
     74700   368.57243      26443.735      1.1875065    
     74800   360.70933      26594.211      1.1807873    
     74900   363.94511      26555.39       1.1825135    
     75000   365.6385       26445.749      1.1874161    
     75100   360.97955      26330.179      1.192628     
     75200   360.23679      26522.472      1.1839812    
     75300   369.55969      26442.964      1.1875411    
     75400   371.09275      26428.331      1.1881987    
     75500   360.79007      26596.814      1.1806718    
     75600   366.11502      26538.367      1.183272     
     75700   367.13018      26518.44       1.1841612    
     75800   364.83737      26703.826      1.1759404    
     75900   358.62606      26548.477      1.1828214    
     76000   369.60534      26494.254      1.1852422    
     76100   372.04908      26628.198      1.1792802    
     76200   362.29662      26687.605      1.1766551    
     76300   361.64034      26615.829      1.1798283    
     76400   369.26567      26796.202      1.1718865    
     76500   359.30998      26913.797      1.1667662    
     76600   365.84248      26916.79       1.1666364    
     76700   374.06367      27096.759      1.158888     
     76800   366.27281      26699.288      1.1761402    
     76900   368.25766      26623.74       1.1794777    
     77000   377.96266      26837.823      1.1700691    
     77100   370.08065      26801.974      1.1716341    
     77200   371.42414      26669.559      1.1774513    
     77300   370.7664       26548.275      1.1828304    
     77400   370.39726      26571.705      1.1817874    
     77500   367.83175      26709.258      1.1757012    
     77600   376.69369      26718.363      1.1753006    
     77700   376.10213      26714.395      1.1754751    
     77800   371.92528      26934.655      1.1658626    
     77900   365.50191      26750.742      1.173878     
     78000   377.34553      26779.514      1.1726168    
     78100   377.27397      26780.747      1.1725628    
     78200   375.18223      26572.445      1.1817545    
     78300   371.5334       26711.521      1.1756016    
     78400   370.95997      26802.613      1.1716062    
     78500   367.71443      26861.252      1.1690485    
     78600   375.50769      27163.371      1.1560461    
     78700   370.84201      26878.007      1.1683198    
     78800   371.27411      27335.373      1.1487719    
     78900   368.15039      27198.517      1.1545522    
     79000   377.69084      26939.003      1.1656744    
     79100   373.75231      26753.631      1.1737512    
     79200   378.19325      26730.462      1.1747686    
     79300   372.91666      26693.259      1.1764059    
     79400   371.28755      26587.174      1.1810999    
     79500   370.41187      26773.418      1.1728838    
     79600   372.95044      26952.56       1.1650881    
     79700   374.06341      26954.437      1.165007     
     79800   376.26329      26905.281      1.1671354    
     79900   373.76302      27119.464      1.1579177    
     80000   379.08567      27052.317      1.1607918    
     80100   371.4472       27199.451      1.1545126    
     80200   375.87842      27146.691      1.1567563    
     80300   376.52851      27098.665      1.1588064    
     80400   363.46372      27272.302      1.1514286    
     80500   378.32696      27072.874      1.1599104    
     80600   374.60792      27081.219      1.1595529    
     80700   380.96732      26964.099      1.1645895    
     80800   365.21356      27267.937      1.1516129    
     80900   369.62911      27215.671      1.1538245    
     81000   375.7944       27248.621      1.1524292    
     81100   372.67197      27026.661      1.1618937    
     81200   373.46812      26895.513      1.1675593    
     81300   372.98248      27003.643      1.1628841    
     81400   373.77917      26935.814      1.1658125    
     81500   370.09663      26950.6        1.1651728    
     81600   374.09731      26887.081      1.1679255    
     81700   380.50531      27037.342      1.1614347    
     81800   368.51594      27186.552      1.1550603    
     81900   370.53772      26904.029      1.1671898    
     82000   368.42332      26903.753      1.1672017    
     82100   375.47571      26738.224      1.1744276    
     82200   376.60587      26755.55       1.173667     
     82300   367.06255      26745.774      1.174096     
     82400   365.47088      26777.702      1.1726961    
     82500   370.46249      26751.606      1.1738401    
     82600   370.80261      26679.806      1.1769991    
     82700   372.61186      26886.948      1.1679313    
     82800   366.18442      26959.003      1.1648097    
     82900   368.29154      26789.1        1.1721972    
     83000   367.48006      27206.566      1.1542106    
     83100   363.79852      27154.067      1.1564421    
     83200   366.4218       26965.436      1.1645318    
     83300   360.55212      27214.807      1.1538611    
     83400   366.33366      27101.209      1.1586976    
     83500   364.85809      27015.516      1.162373     
     83600   369.92221      26915.405      1.1666965    
     83700   367.84512      26917.569      1.1666027    
     83800   369.32872      26922.555      1.1663866    
     83900   367.06956      27011.752      1.162535     
     84000   360.39141      26982.991      1.1637742    
     84100   373.3922       27096.708      1.1588901    
     84200   370.22386      27053.753      1.1607302    
     84300   368.59909      27087.173      1.1592981    
     84400   374.02305      27023.882      1.1620132    
     84500   366.35413      26893.921      1.1676285    
     84600   367.53414      26981.472      1.1638397    
     84700   375.85489      26976.586      1.1640504    
     84800   375.69222      26784.744      1.1723878    
     84900   376.72238      26976.162      1.1640688    
     85000   373.08594      26977.42       1.1640145    
     85100   371.24422      26898.097      1.1674472    
     85200   377.83951      27132.398      1.1573657    
     85300   376.75223      27173.34       1.1556219    
     85400   372.45258      27085.898      1.1593527    
     85500   376.59974      27022.979      1.162052     
     85600   384.41352      26662.966      1.1777425    
     85700   379.07951      26771.574      1.1729646    
     85800   369.40062      27172.406      1.1556616    
     85900   376.51255      27034.774      1.161545     
     86000   374.74898      26969.717      1.1643469    
     86100   377.46362      27090.874      1.1591397    
     86200   376.69337      26871.373      1.1686082    
     86300   380.85869      26823.999      1.1706721    
     86400   383.0643       26753.744      1.1737463    
     86500   380.8475       26828.55       1.1704735    
     86600   379.78079      26794.709      1.1719518    
     86700   378.78772      26803.302      1.1715761    
     86800   380.46064      26716.446      1.1753849    
     86900   385.3335       26892.137      1.1677059    
     87000   381.13428      26650.274      1.1783034    
     87100   370.25356      26814.691      1.1710785    
     87200   367.78781      26947.81       1.1652935    
     87300   377.5679       26783.357      1.1724485    
     87400   373.34737      26894.318      1.1676112    
     87500   369.52911      26880.147      1.1682268    
     87600   366.12188      27036.594      1.1614668    
     87700   372.8926       27060.63       1.1604352    
     87800   370.366        26966.167      1.1645002    
     87900   373.39485      27057.154      1.1605843    
     88000   374.56125      26811.744      1.1712072    
     88100   370.38779      26866.26       1.1688306    
     88200   368.1483       26783.483      1.172443     
     88300   370.31915      27114.972      1.1581095    
     88400   366.82731      27091.309      1.1591211    
     88500   368.93933      27155.998      1.1563599    
     88600   368.79714      26963.441      1.1646179    
     88700   367.79268      27027.614      1.1618527    
     88800   370.78398      26920.713      1.1664664    
     88900   371.32286      27231.302      1.1531622    
     89000   370.92504      27080.212      1.1595961    
     89100   374.14671      27356.415      1.1478882    
     89200   367.17361      27098.767      1.1588021    
     89300   372.86222      27243.604      1.1526414    
     89400   369.02321      27287.512      1.1507867    
     89500   376.06052      27092.973      1.1590499    
     89600   373.18284      27010.876      1.1625727    
     89700   369.30567      27046.581      1.161038     
     89800   368.96422      26777.905      1.1726872    
     89900   374.59544      26937.662      1.1657325    
     90000   378.17136      27040.583      1.1612955    
     90100   373.00926      27021.444      1.162118     
     90200   372.98126      26874.469      1.1684736    
     90300   366.76522      27049.96       1.1608929    
     90400   381.58709      27000.57       1.1630165    
     90500   374.48022      26933.387      1.1659175    
     90600   368.21133      26840.515      1.1699517    
     90700   371.85078      27010.269      1.1625989    
     90800   378.56708      26823.912      1.1706759    
     90900   373.4641       26702.643      1.1759925    
     91000   372.96481      26564.683      1.1820998    
     91100   375.41861      26718.915      1.1752763    
     91200   377.86493      27307.591      1.1499406    
     91300   363.05274      27094.298      1.1589932    
     91400   369.40451      26966.825      1.1644718    
     91500   374.64515      26913.727      1.1667692    
     91600   381.59837      26734.28       1.1746008    
     91700   379.8279       27015.002      1.1623951    
     91800   377.24595      27102.42       1.1586459    
     91900   376.00846      27031.726      1.161676     
     92000   380.4896       27332.439      1.1488952    
     92100   374.81596      27203.861      1.1543254    
     92200   376.80065      27254.587      1.152177     
     92300   372.07451      26959.408      1.1647922    
     92400   371.88324      27473.018      1.1430163    
     92500   373.47557      27264.993      1.1517372    
     92600   378.20243      27221.737      1.1535674    
     92700   381.90185      27210.435      1.1540465    
     92800   371.74996      27163.233      1.1560519    
     92900   376.71051      27062.896      1.160338     
     93000   378.85361      27105.693      1.158506     
     93100   376.99963      26982.211      1.1638078    
     93200   379.22127      27119.463      1.1579178    
     93300   369.8946       27229.677      1.153231     
     93400   374.16527      26952.83       1.1650765    
     93500   374.38922      27210.343      1.1540504    
     93600   373.25351      27361.124      1.1476907    
     93700   373.00778      27200.792      1.1544556    
     93800   373.83553      27073.441      1.1598861    
     93900   370.91691      27188.609      1.1549729    
     94000   377.58629      26936.942      1.1657636    
     94100   372.01937      27278.656      1.1511603    
     94200   374.74187      27069.973      1.1600347    
     94300   380.31481      26726.73       1.1749326    
     94400   369.1438       26643.335      1.1786102    
     94500   367.47416      26888.017      1.1678848    
     94600   375.96966      26828.838      1.170461     
     94700   379.22911      26859.316      1.1691328    
     94800   366.62256      26971.797      1.1642571    
     94900   370.67586      27177.288      1.155454     
     95000   369.75549      27198.172      1.1545668    
     95100   372.43156      27183.092      1.1552073    
     95200   377.85623      26919.551      1.1665167    
     95300   375.58259      26840.268      1.1699625    
     95400   377.74908      26969.198      1.1643694    
     95500   371.52197      27427.628      1.1449079    
     95600   372.86267      27007.684      1.1627101    
     95700   373.56648      26910.105      1.1669262    
     95800   367.82644      27017.449      1.1622899    
     95900   365.73985      27068.282      1.1601071    
     96000   372.60127      27069.911      1.1600373    
     96100   373.78767      26993.796      1.1633083    
     96200   367.02515      27186.332      1.1550697    
     96300   368.08611      27217.306      1.1537552    
     96400   366.05151      26985.429      1.163669     
     96500   372.85549      26914.522      1.1667347    
     96600   373.78623      26969.399      1.1643607    
     96700   370.32773      26939.986      1.1656319    
     96800   374.83157      26842.2        1.1698783    
     96900   373.13133      27181.163      1.1552893    
     97000   362.35431      27231.869      1.1531382    
     97100   372.91259      26987.987      1.1635587    
     97200   367.78864      27085.325      1.1593772    
     97300   372.59565      27087.397      1.1592885    
     97400   363.23301      27223.991      1.1534718    
     97500   362.62107      26979.032      1.1639449    
     97600   380.02743      27024.404      1.1619907    
     97700   372.21734      27206.3        1.1542219    
     97800   376.08027      27161.961      1.1561061    
     97900   377.92741      27352.444      1.1480549    
     98000   373.84515      27530.317      1.1406373    
     98100   375.80425      27242.439      1.1526907    
     98200   370.13102      27236.152      1.1529568    
     98300   376.31621      27396.796      1.1461963    
     98400   378.52244      27364.558      1.1475467    
     98500   378.41167      27209.852      1.1540712    
     98600   380.63206      27207.333      1.1541781    
     98700   377.39564      27430.578      1.1447848    
     98800   378.39057      27468.342      1.1432109    
     98900   381.92794      27257.87       1.1520382    
     99000   378.13188      27109.14       1.1583587    
     99100   375.36015      27251.991      1.1522867    
     99200   369.37432      27358.094      1.1478178    
     99300   373.89966      27376.505      1.1470459    
     99400   377.52551      27146.249      1.1567752    
     99500   380.66087      26829.64       1.170426     
     99600   376.38313      26996.066      1.1632105    
     99700   378.95408      27024.804      1.1619736    
     99800   376.91264      26932.071      1.1659745    
     99900   378.26676      26864.908      1.1688894    
    100000   377.21592      26879.35       1.1682614    
    100100   368.0665       27251.465      1.152309     
    100200   370.25225      27340.579      1.1485531    
    100300   378.52893      27120.129      1.1578893    
    100400   375.20351      26974.442      1.164143     
    100500   380.25548      27169.166      1.1557995    
    100600   374.96316      27206.012      1.1542341    
    100700   371.91013      27061.837      1.1603834    
    100800   367.25486      27277.894      1.1511925    
    100900   377.45466      27318.471      1.1494826    
    101000   365.05168      27187.203      1.1550327    
    101100   364.72307      27120.967      1.1578535    
    101200   374.02564      27121.144      1.157846     
    101300   374.01391      27131.12       1.1574202    
    101400   373.5356       27117.263      1.1580117    
    101500   370.17859      27131.317      1.1574118    
    101600   371.91638      26985.152      1.163681     
    101700   370.79186      27058.085      1.1605443    
    101800   371.28792      26974.726      1.1641307    
    101900   366.42387      27265.195      1.1517287    
    102000   373.22775      27107.673      1.1584213    
    102100   368.63624      27131.693      1.1573958    
    102200   373.69996      27249.419      1.1523955    
    102300   366.15166      27186.947      1.1550435    
    102400   361.23904      27326.32       1.1491524    
    102500   369.34895      27062.214      1.1603673    
    102600   374.27008      26968.014      1.1644204    
    102700   363.35179      27108.305      1.1583943    
    102800   376.97287      26999.5        1.1630625    
    102900   361.12472      27127.766      1.1575633    
    103000   370.71215      27287.84       1.1507729    
    103100   368.78428      27397.262      1.1461768    
    103200   372.8734       27280.418      1.151086     
    103300   375.32994      27176.787      1.1554753    
    103400   372.15641      27116.641      1.1580382    
    103500   370.75414      27309.443      1.1498626    
    103600   367.39181      27517.152      1.141183     
    103700   370.22328      27308.69       1.1498943    
    103800   372.19715      27436.643      1.1445317    
    103900   372.5367       27601.025      1.1377152    
    104000   366.13743      27574.959      1.1387907    
    104100   373.49398      27431.463      1.1447478    
    104200   371.81833      27293.998      1.1505133    
    104300   376.96297      27152.792      1.1564964    
    104400   370.86756      27207.818      1.1541575    
    104500   379.1613       26989.327      1.163501     
    104600   380.58045      27079.387      1.1596314    
    104700   374.44525      27081.731      1.159531     
    104800   367.07931      27318.662      1.1494746    
    104900   375.67127      26985.429      1.163669     
    105000   370.50809      26845.175      1.1697487    
    105100   376.95772      26874.289      1.1684814    
    105200   369.73747      27129.99       1.1574684    
    105300   377.63426      27348.02       1.1482406    
    105400   381.29041      27222.613      1.1535302    
    105500   368.3101       27235.814      1.1529711    
    105600   372.31726      27288.15       1.1507599    
    105700   377.5662       27316.957      1.1495463    
    105800   372.32528      27328.712      1.1490519    
    105900   377.1755       27237.647      1.1528935    
    106000   379.25967      27321.456      1.149357     
    106100   375.68104      27352.861      1.1480374    
    106200   380.87112      27278.003      1.1511879    
    106300   378.76958      27289.263      1.1507129    
    106400   379.99503      27431.517      1.1447456    
    106500   386.51065      27340.928      1.1485385    
    106600   382.54905      27213.489      1.153917     
    106700   387.20966      27119.348      1.1579226    
    106800   385.95816      27087.765      1.1592727    
    106900   377.93601      27211.394      1.1540058    
    107000   376.89266      26831.568      1.1703419    
    107100   380.17982      26991.033      1.1634274    
    107200   377.6354       26903.711      1.1672036    
    107300   373.44596      27027.435      1.1618604    
    107400   384.33142      27053.995      1.1607198    
    107500   385.14824      26952.968      1.1650705    
    107600   379.18922      27256.42       1.1520995    
    107700   379.83811      27066.315      1.1601915    
    107800   380.56553      27050.561      1.1608671    
    107900   387.69506      27087.888      1.1592675    
    108000   379.55648      27222.967      1.1535152    
    108100   377.28595      27318.543      1.1494796    
    108200   373.84857      26918.954      1.1665426    
    108300   374.86751      27054.71       1.1606891    
    108400   374.05373      26995.042      1.1632546    
    108500   378.01031      26951.566      1.1651311    
    108600   370.13293      26916.034      1.1666692    
    108700   370.64018      27168.216      1.1558399    
    108800   370.6887       27227.892      1.1533066    
    108900   377.96866      27090.276      1.1591653    
    109000   379.1711       27053.626      1.1607356    
    109100   368.21367      27327.491      1.1491032    
    109200   372.45675      27145.68       1.1567995    
    109300   372.87245      27171.901      1.1556831    
    109400   365.00865      27243.68       1.1526382    
    109500   372.8024       27021.555      1.1621133    
    109600   374.43331      26746.212      1.1740768    
    109700   359.59894      26712.459      1.1755603    
    109800   368.45517      26522.508      1.1839796    
    109900   367.87095      26795.817      1.1719033    
    110000   366.76663      26978.267      1.1639779    
    110100   370.02507      27087.652      1.1592776    
    110200   363.07288      27005.847      1.1627892    
    110300   369.18264      26908.358      1.167002     
    110400   368.92233      26999.34       1.1630694    
    110500   376.61233      27027.167      1.1618719    
    110600   371.98249      27078.955      1.1596499    
    110700   372.47052      27179.644      1.1553539    
    110800   369.24658      27140.749      1.1570096    
    110900   372.17039      27194.714      1.1547137    
    111000   370.10096      27089.358      1.1592046    
    111100   376.43289      27031.965      1.1616657    
    111200   375.98013      27162.538      1.1560815    
    111300   370.30359      27095.277      1.1589513    
    111400   369.52451      27122.263      1.1577982    
    111500   376.13928      27105.211      1.1585266    
    111600   367.64024      27172.497      1.1556578    
    111700   375.74435      27051.2        1.1608397    
    111800   369.33657      27123.614      1.1577405    
    111900   374.14394      26940.271      1.1656196    
    112000   372.48953      26928.555      1.1661267    
    112100   382.92944      26682.417      1.1768839    
    112200   374.86016      27040.531      1.1612977    
    112300   385.58602      27155.035      1.1564009    
    112400   377.24801      27063.13       1.160328     
    112500   380.81947      27329.969      1.148999     
    112600   379.97563      27109.917      1.1583255    
    112700   380.06262      26975.656      1.1640906    
    112800   372.27656      27001.053      1.1629957    
    112900   386.16704      27234.646      1.1530206    
    113000   380.88059      27126.493      1.1576176    
    113100   376.69978      27051.156      1.1608416    
    113200   378.48198      27302.459      1.1501567    
    113300   373.90337      27242.333      1.1526952    
    113400   371.28106      27095.49       1.1589422    
    113500   385.58953      27096.284      1.1589082    
    113600   378.61381      27046.094      1.1610589    
    113700   376.04055      26830.184      1.1704023    
    113800   378.76402      26887.671      1.1678998    
    113900   377.43582      27161.335      1.1561327    
    114000   379.65166      26891.127      1.1677498    
    114100   381.948        27099.321      1.1587784    
    114200   374.60545      26968.454      1.1644015    
    114300   374.90307      27058.186      1.16054      
    114400   366.31755      27106.295      1.1584802    
    114500   364.52049      27124.226      1.1577144    
    114600   372.64933      27304.659      1.1500641    
    114700   372.64746      27254.908      1.1521634    
    114800   368.72141      26829.32       1.1704399    
    114900   367.45451      26907.759      1.167028     
    115000   369.36581      26893.86       1.1676311    
    115100   372.76022      26933.344      1.1659194    
    115200   365.20835      27341.063      1.1485328    
    115300   371.10555      27151.583      1.1565479    
    115400   367.18097      27160.582      1.1561648    
    115500   369.51072      27353.736      1.1480007    
    115600   372.00611      27168.441      1.1558303    
    115700   366.45194      27194.139      1.1547381    
    115800   369.25318      27450.475      1.143955     
    115900   374.12396      27353.549      1.1480085    
    116000   375.6799       27297.26       1.1503758    
    116100   369.37234      27171.97       1.1556802    
    116200   369.40578      27082.248      1.1595089    
    116300   369.11154      26993.018      1.1633419    
    116400   371.5318       27195.505      1.1546801    
    116500   371.97874      27014.057      1.1624358    
    116600   376.96297      27079.928      1.1596082    
    116700   371.12111      26815.189      1.1710567    
    116800   377.82431      26978.505      1.1639677    
    116900   373.27107      27244.964      1.1525839    
    117000   365.19949      27255.528      1.1521372    
    117100   373.1174       27281.104      1.151057     
    117200   376.02997      27398.868      1.1461096    
    117300   371.8398       27179.568      1.1553571    
    117400   383.68843      27051.856      1.1608116    
    117500   374.43471      26954.176      1.1650183    
    117600   372.22202      26904.176      1.1671834    
    117700   380.98236      27002.067      1.162952     
    117800   386.06843      27170.017      1.1557633    
    117900   376.0449       27331.267      1.1489444    
    118000   375.52963      27396.888      1.1461925    
    118100   369.47036      27485.105      1.1425137    
    118200   373.71937      27463.467      1.1434138    
    118300   378.29158      27627.543      1.1366232    
    118400   384.31533      27567.697      1.1390907    
    118500   375.19813      27518.599      1.141123     
    118600   379.3907       27506.804      1.1416123    
    118700   371.73832      27298.538      1.1503219    
    118800   373.43103      27174.704      1.1555639    
    118900   379.28686      27386.612      1.1466226    
    119000   373.61352      27261.125      1.1519006    
    119100   372.861        27250.187      1.152363     
    119200   373.97565      27117.211      1.1580139    
    119300   368.7375       27329.816      1.1490054    
    119400   371.67336      27112.063      1.1582338    
    119500   373.57969      27350.129      1.1481521    
    119600   367.04244      27242.07       1.1527064    
    119700   369.65538      27406.305      1.1457987    
    119800   373.03012      27359.774      1.1477473    
    119900   360.96339      27354.374      1.1479739    
    120000   363.33948      27473.358      1.1430022    
    120100   367.92454      27418.119      1.1453049    
    120200   371.24716      27490.24       1.1423002    
    120300   371.91213      27301.688      1.1501892    
    120400   373.5553       27087.256      1.1592945    
    120500   366.64956      27264.997      1.1517371    
    120600   369.85769      27395.312      1.1462584    
    120700   367.9453       27472.893      1.1430215    
    120800   359.87165      27453.437      1.1438315    
    120900   366.19021      27357.637      1.147837     
    121000   366.9066       27131.294      1.1574128    
    121100   366.33051      27317.045      1.1495426    
    121200   366.83602      27182.691      1.1552244    
    121300   360.5567       27303.705      1.1501042    
    121400   367.21881      27196.507      1.1546375    
    121500   363.24037      27175.716      1.1555209    
    121600   367.68393      27386.745      1.146617     
    121700   364.41142      27436.961      1.1445184    
    121800   372.5869       27364.686      1.1475413    
    121900   376.70708      27370.018      1.1473177    
    122000   366.47294      27197.272      1.154605     
    122100   366.37081      27389.363      1.1465074    
    122200   375.40373      27391.304      1.1464261    
    122300   377.78808      27321.951      1.1493362    
    122400   376.70294      27281.566      1.1510376    
    122500   372.26579      27267.613      1.1516266    
    122600   370.57189      27025.686      1.1619356    
    122700   376.1702       27269.678      1.1515393    
    122800   368.0315       27089.544      1.1591966    
    122900   374.57368      27156.369      1.1563441    
    123000   376.18803      27284.678      1.1509063    
    123100   376.68319      27237.863      1.1528844    
    123200   383.2798       27038.591      1.161381     
    123300   371.40052      27003.813      1.1628768    
    123400   375.3912       27148.64       1.1566733    
    123500   366.78217      27193.308      1.1547734    
    123600   372.99954      27126.387      1.1576222    
    123700   372.43389      27141.827      1.1569636    
    123800   364.79809      27100.98       1.1587075    
    123900   378.33172      27050.017      1.1608905    
    124000   377.12013      27030.359      1.1617348    
    124100   371.75507      27143.993      1.1568713    
    124200   368.31502      27159.208      1.1562232    
    124300   375.09589      27045.565      1.1610816    
    124400   372.96565      26894.134      1.1676192    
    124500   377.60585      27189.473      1.1549362    
    124600   377.19355      27261.605      1.1518804    
    124700   371.54977      27203.485      1.1543413    
    124800   370.30002      27274.092      1.151353     
    124900   369.36748      27126.563      1.1576147    
    125000   371.75567      27132.84       1.1573469    
    125100   374.93606      27221.842      1.1535629    
    125200   370.50032      27276.882      1.1512352    
    125300   366.95054      27037.983      1.1614072    
    125400   368.52747      27076.449      1.1597572    
    125500   375.06476      26678.96       1.1770364    
    125600   364.95441      26833.088      1.1702756    
    125700   360.92004      26742.949      1.17422      
    125800   370.65817      27033.539      1.1615981    
    125900   371.77315      26968.024      1.16442      
    126000   369.51962      27071.973      1.159949     
    126100   372.42678      27160.825      1.1561544    
    126200   372.3447       27252.647      1.152259     
    126300   363.03068      27027.243      1.1618687    
    126400   364.91646      27107.108      1.1584455    
    126500   366.05087      26941.347      1.165573     
    126600   365.28523      27018.078      1.1622628    
    126700   359.4688       27031.958      1.161666     
    126800   369.14731      26966.823      1.1644719    
    126900   363.0357       26825.527      1.1706054    
    127000   365.24157      26839.091      1.1700138    
    127100   364.21557      26836.792      1.170114     
    127200   364.22241      27040.71       1.16129      
    127300   366.2554       26973.888      1.1641669    
    127400   365.28987      27129.62       1.1574842    
    127500   359.88188      26990.361      1.1634564    
    127600   369.63048      27124.764      1.1576915    
    127700   367.02963      27024.667      1.1619795    
    127800   366.48707      26796.695      1.1718649    
    127900   374.20235      26831.282      1.1703543    
    128000   369.18231      27053.124      1.1607572    
    128100   379.00085      26961.615      1.1646968    
    128200   379.07275      26938.133      1.1657121    
    128300   370.92245      27084.572      1.1594094    
    128400   373.91624      27153.138      1.1564817    
    128500   375.70907      27297.522      1.1503647    
    128600   377.39953      27272.104      1.1514369    
    128700   374.3463       27412.049      1.1455585    
    128800   382.90712      27218.17       1.1537185    
    128900   380.24498      27053.918      1.1607231    
    129000   374.03683      27241.352      1.1527367    
    129100   377.08585      27223.169      1.1535067    
    129200   379.88498      26949.673      1.1652129    
    129300   374.11074      26833.145      1.1702731    
    129400   379.85186      27053.283      1.1607503    
    129500   374.6924       27125.029      1.1576802    
    129600   378.15489      27129.71       1.1574804    
    129700   377.18781      27135.952      1.1572142    
    129800   372.13515      27096.408      1.158903     
    129900   373.52539      27086.458      1.1593287    
    130000   382.03448      27153.439      1.1564689    
    130100   378.95086      27181.787      1.1552628    
    130200   375.24671      27171.775      1.1556885    
    130300   372.85832      27022.717      1.1620633    
    130400   372.95932      27344.242      1.1483993    
    130500   382.02135      27233.972      1.1530491    
    130600   381.42156      27142.676      1.1569275    
    130700   373.74851      26927.647      1.166166     
    130800   375.13308      27008.471      1.1626762    
    130900   375.00964      26783.594      1.1724382    
    131000   374.67029      26992.518      1.1633634    
    131100   373.26093      27139.139      1.1570783    
    131200   375.83523      27134.184      1.1572896    
    131300   373.47827      27251.156      1.152322     
    131400   365.9888       27202.219      1.1543951    
    131500   359.95671      27216.922      1.1537714    
    131600   371.92778      27147.352      1.1567282    
    131700   363.73872      27481.074      1.1426812    
    131800   366.82544      27097.628      1.1588508    
    131900   370.15057      26851.557      1.1694706    
    132000   368.28699      26849.173      1.1695745    
    132100   367.23624      26606.103      1.1802596    
    132200   367.26521      26872.776      1.1685472    
    132300   364.4772       26791.527      1.172091     
    132400   369.95589      26983.317      1.1637601    
    132500   360.74163      27025.649      1.1619372    
    132600   364.3879       26987.971      1.1635594    
    132700   369.0385       27088.169      1.1592554    
    132800   374.45338      27003.868      1.1628744    
    132900   369.35848      26951.64       1.1651279    
    133000   368.08864      27181.266      1.1552849    
    133100   371.57416      26838.467      1.170041     
    133200   372.52944      27002.792      1.1629208    
    133300   367.14839      27126.909      1.1575999    
    133400   375.16133      26902.258      1.1672666    
    133500   367.32918      27202.564      1.1543804    
    133600   375.75254      26958.946      1.1648121    
    133700   373.83514      26958.928      1.1648129    
    133800   376.92588      26919.019      1.1665398    
    133900   363.96154      26984.247      1.16372      
    134000   380.6176       26766.577      1.1731835    
    134100   382.82642      26625.783      1.1793872    
    134200   379.52109      26891.374      1.167739     
    134300   375.46134      26809.307      1.1713136    
    134400   383.51632      26777.115      1.1727218    
    134500   376.52752      26713.824      1.1755003    
    134600   378.39092      26905.978      1.1671052    
    134700   382.48957      26966.273      1.1644957    
    134800   384.7038       26811.567      1.1712149    
    134900   380.94947      26765.689      1.1732225    
    135000   384.28106      26799.23       1.1717541    
    135100   382.17525      26690.76       1.176516     
    135200   381.41586      26792.721      1.1720388    
    135300   387.78783      26978.264      1.1639781    
    135400   376.38235      27119.789      1.1579038    
    135500   384.66662      27058.986      1.1605057    
    135600   373.56013      27071.024      1.1599896    
    135700   380.31707      26861.783      1.1690254    
    135800   385.27583      26728.047      1.1748748    
    135900   375.38537      26787.825      1.172253     
    136000   371.30905      26765.196      1.1732441    
    136100   378.34347      26888.444      1.1678663    
    136200   370.09881      27049.408      1.1609166    
    136300   367.50182      27028.917      1.1617967    
    136400   369.27347      27241.854      1.1527155    
    136500   372.94464      27156.408      1.1563424    
    136600   373.92529      27019.212      1.162214     
    136700   366.97163      26799.663      1.1717352    
[...]
   1167700   426.07175      27279.094      1.1511419    
   1167800   440.80344      27263.381      1.1518053    
   1167900   432.70588      27208.717      1.1541194    
   1168000   431.49865      27388.204      1.1465559    
   1168100   429.15622      27212.529      1.1539577    
   1168200   433.70188      27308.042      1.1499216    
   1168300   430.90392      27183.598      1.1551858    
   1168400   440.77067      27123.576      1.1577421    
   1168500   436.55454      27199.333      1.1545175    
   1168600   435.64638      27314.422      1.149653     
   1168700   442.57149      27387.558      1.1465829    
   1168800   438.80852      27320.827      1.1493835    
   1168900   428.38074      27367.622      1.1474182    
   1169000   436.91894      27374.105      1.1471464    
   1169100   435.27044      27351.801      1.1480819    
   1169200   442.83317      27422.965      1.1451026    
   1169300   438.07994      27363.931      1.1475729    
   1169400   433.56349      27186.807      1.1550495    
   1169500   441.50556      27455.656      1.1437391    
   1169600   439.76913      27222.57       1.1535321    
   1169700   446.51447      27509.743      1.1414904    
   1169800   426.83198      27248.281      1.1524436    
   1169900   434.07884      26943.388      1.1654847    
   1170000   440.56986      27219.085      1.1536798    
   1170100   436.21874      27376.316      1.1470538    
   1170200   448.91779      27275.54       1.1512919    
   1170300   441.67408      27254.929      1.1521625    
   1170400   440.28859      27433.04       1.144682     
   1170500   450.41253      27299.516      1.1502807    
   1170600   446.38374      27175.227      1.1555417    
   1170700   445.15988      27397.651      1.1461606    
   1170800   442.86947      27494.646      1.1421172    
   1170900   452.35808      27513.86       1.1413196    
   1171000   445.14583      27387.905      1.1465685    
   1171100   447.39982      27390.984      1.1464395    
   1171200   437.79846      27480.526      1.142704     
   1171300   451.14182      27374.228      1.1471413    
   1171400   453.49778      27540.856      1.1402009    
   1171500   441.63131      27502.704      1.1417825    
   1171600   446.69499      27668.9        1.1349243    
   1171700   441.05544      27475.946      1.1428945    
   1171800   445.28825      27361.522      1.147674     
   1171900   449.01707      27338.897      1.1486238    
   1172000   441.31228      27555.756      1.1395843    
   1172100   452.19528      27451.471      1.1439135    
   1172200   446.83796      27437.284      1.1445049    
   1172300   439.31782      27405.827      1.1458187    
   1172400   448.22659      27270.224      1.1515163    
   1172500   439.89866      27341.836      1.1485003    
   1172600   449.58811      27272.13       1.1514358    
   1172700   444.24384      27301.743      1.1501869    
   1172800   447.63354      27400.551      1.1460393    
   1172900   433.95498      27448.664      1.1440305    
   1173000   450.8749       27298.585      1.15032      
   1173100   437.08743      27232.841      1.153097     
   1173200   430.7021       27267.05       1.1516503    
   1173300   437.9219       27303.253      1.1501233    
   1173400   438.56485      27525.305      1.140845     
   1173500   432.52467      27390.103      1.1464764    
   1173600   440.27269      27593.165      1.1380393    
   1173700   436.85704      27311.241      1.1497869    
   1173800   436.00739      27279.156      1.1511393    
   1173900   434.89288      27088.36       1.1592473    
   1174000   440.12411      27028.154      1.1618295    
   1174100   449.97378      27001.21       1.1629889    
   1174200   436.07865      27027.016      1.1618784    
   1174300   435.23095      27030.503      1.1617286    
   1174400   431.06759      27250.269      1.1523595    
   1174500   430.08287      27207.04       1.1541905    
   1174600   440.99852      27070.366      1.1600178    
   1174700   425.93614      27394.751      1.1462819    
   1174800   432.47087      27251.816      1.1522941    
   1174900   439.65098      27197.425      1.1545985    
   1175000   445.34877      27478.546      1.1427864    
   1175100   442.09591      27402.925      1.14594      
   1175200   444.07522      27408.135      1.1457222    
   1175300   447.20579      27542.323      1.1401401    
   1175400   435.41783      27485.387      1.1425019    
   1175500   444.95712      27691.439      1.1340006    
   1175600   441.69312      27683.188      1.1343385    
   1175700   448.67664      27400.029      1.1460611    
   1175800   450.40029      27535.756      1.140412     
   1175900   449.8431       27382.548      1.1467927    
   1176000   445.63571      27347.82       1.148249     
   1176100   438.95558      27444.724      1.1441947    
   1176200   447.4359       27294.188      1.1505053    
   1176300   450.27068      27032.339      1.1616497    
   1176400   451.44552      27126.986      1.1575966    
   1176500   456.10016      27098.89       1.1587968    
   1176600   450.13427      26886.346      1.1679574    
   1176700   448.64726      27308.779      1.1498906    
   1176800   452.36941      27176.15       1.1555024    
   1176900   450.30301      26995.929      1.1632164    
   1177000   456.5129       27222.947      1.1535161    
   1177100   451.8037       27186.623      1.1550573    
   1177200   439.32873      27359.07       1.1477768    
   1177300   442.33         27371.471      1.1472569    
   1177400   446.37623      27099.118      1.158787     
   1177500   448.39942      27441.787      1.1443172    
   1177600   445.29108      27225.762      1.1533968    
   1177700   444.39823      27388.726      1.1465341    
   1177800   435.57707      27579.379      1.1386082    
   1177900   438.26552      27386.697      1.146619     
   1178000   446.66324      27238.181      1.152871     
   1178100   435.43578      27464.347      1.1433772    
   1178200   436.66609      27627.004      1.1366454    
   1178300   441.3184       27665.991      1.1350437    
   1178400   436.80805      27471.112      1.1430956    
   1178500   434.56913      27641.051      1.1360678    
   1178600   435.92362      27265.674      1.1517085    
   1178700   441.86507      27254.897      1.1521639    
   1178800   434.20197      27385.741      1.146659     
   1178900   430.49343      27473.413      1.1429998    
   1179000   437.19369      27481.301      1.1426718    
   1179100   442.25674      27285.634      1.1508659    
   1179200   433.41558      27159.464      1.1562123    
   1179300   441.38146      27430.15       1.1448026    
   1179400   445.70048      27451.354      1.1439183    
   1179500   435.6882       27504.32       1.1417155    
   1179600   438.66604      27598.124      1.1378348    
   1179700   444.05895      27552.638      1.1397133    
   1179800   447.58119      27384.273      1.1467205    
   1179900   446.33559      27403.75       1.1459055    
   1180000   444.26626      27484.487      1.1425393    
   1180100   434.91106      27272.975      1.1514001    
   1180200   450.93685      27453.339      1.1438356    
   1180300   451.67053      27229.35       1.1532448    
   1180400   446.64247      27344.588      1.1483847    
   1180500   448.47819      27736.882      1.1321427    
   1180600   441.27921      27362.338      1.1476398    
   1180700   452.65552      27483.922      1.1425628    
   1180800   445.18063      27507.329      1.1415906    
   1180900   454.00311      27299.667      1.1502744    
   1181000   454.6161       27356.299      1.1478931    
   1181100   451.85142      27366.077      1.147483     
   1181200   452.28609      27425.871      1.1449812    
   1181300   452.23647      27375.816      1.1470747    
   1181400   456.83559      27342.523      1.1484715    
   1181500   455.98031      27194.141      1.154738     
   1181600   455.81931      27232.986      1.1530909    
   1181700   451.57685      27453.133      1.1438442    
   1181800   448.98556      27541.591      1.1401704    
   1181900   449.28274      27872.992      1.1266142    
   1182000   444.48603      27412.484      1.1455404    
   1182100   449.09682      27826.073      1.1285138    
   1182200   445.30225      27481.857      1.1426487    
   1182300   447.33748      27487.531      1.1424128    
   1182400   436.63539      27472.393      1.1430423    
   1182500   452.99679      27484.511      1.1425383    
   1182600   440.65603      27410.689      1.1456154    
   1182700   439.77996      27465.506      1.1433289    
   1182800   443.27682      27694.959      1.1338564    
   1182900   453.23335      27834.731      1.1281628    
   1183000   447.1027       27587.095      1.1382897    
   1183100   443.16337      27609.827      1.1373525    
   1183200   446.27419      27302.73       1.1501453    
   1183300   443.41544      27250.766      1.1523385    
   1183400   446.57663      27392.677      1.1463687    
   1183500   436.26532      27557.007      1.1395326    
   1183600   439.69352      27524.678      1.140871     
   1183700   442.67439      27674.859      1.1346799    
   1183800   447.82868      27588.605      1.1382274    
   1183900   436.5687       27802.315      1.1294782    
   1184000   440.64911      27662.43       1.1351898    
   1184100   445.35056      27630.019      1.1365214    
   1184200   440.91623      27575.121      1.138784     
   1184300   437.90182      27581.701      1.1385124    
   1184400   445.59254      27437.101      1.1445126    
   1184500   439.52217      27625.751      1.136697     
   1184600   437.31221      27516.077      1.1412276    
   1184700   438.38648      27216.809      1.1537762    
   1184800   443.2695       27193.967      1.1547454    
   1184900   446.55793      27230.61       1.1531915    
   1185000   449.47934      27190.796      1.15488      
   1185100   443.919        27467.819      1.1432327    
   1185200   438.52425      27546.746      1.139957     
   1185300   439.91595      27490.274      1.1422988    
   1185400   451.62141      27645.283      1.1358939    
   1185500   443.61568      27500.267      1.1418837    
   1185600   434.30778      27526.88       1.1407797    
   1185700   446.20552      27732.654      1.1323153    
   1185800   439.41018      27689.433      1.1340827    
   1185900   441.64813      27408.58       1.1457035    
   1186000   435.32345      27815.751      1.1289326    
   1186100   447.13163      27645.683      1.1358774    
   1186200   439.1956       27576.904      1.1387104    
   1186300   446.80704      27555.662      1.1395882    
   1186400   439.52945      27669.649      1.1348936    
   1186500   443.41979      27605.089      1.1375478    
   1186600   440.94949      27661.269      1.1352374    
   1186700   447.08691      27889.98       1.1259279    
   1186800   437.97944      27619.001      1.1369748    
   1186900   449.29315      27512.274      1.1413854    
   1187000   456.01896      27221.12       1.1535935    
   1187100   452.22456      27592.479      1.1380676    
   1187200   445.76289      27683.638      1.1343201    
   1187300   453.01977      27684.055      1.134303     
   1187400   450.30462      27772.029      1.1307099    
   1187500   456.09659      27490.051      1.1423081    
   1187600   444.52878      28035.656      1.1200775    
   1187700   448.42202      27812.999      1.1290443    
   1187800   459.86619      27520.489      1.1410447    
   1187900   448.47205      27528.713      1.1407038    
   1188000   451.42171      27946.953      1.1236326    
   1188100   450.37855      27825.28       1.1285459    
   1188200   444.02861      28236.624      1.1121056    
   1188300   446.31909      28202.175      1.113464     
   1188400   445.11018      28268.311      1.110859     
   1188500   439.64806      27854.94       1.1273443    
   1188600   453.43326      27581.192      1.1385334    
   1188700   449.77923      27642.099      1.1360247    
   1188800   446.43115      27709.148      1.1332758    
   1188900   445.04         27308.068      1.1499205    
   1189000   447.72771      27251.799      1.1522948    
   1189100   443.28641      27405.75       1.1458219    
   1189200   445.81664      27339.055      1.1486171    
   1189300   435.7451       27561.866      1.1393317    
   1189400   447.28645      27582.006      1.1384998    
   1189500   440.60026      27633.34       1.1363848    
   1189600   440.31449      27730.935      1.1323855    
   1189700   441.64396      27380.73       1.1468689    
   1189800   437.45033      27955.861      1.1232746    
   1189900   440.73692      28084.935      1.1181121    
   1190000   437.20576      27885.123      1.1261241    
   1190100   437.32971      27901.658      1.1254567    
   1190200   437.9217       27669.314      1.1349073    
   1190300   431.21431      27834.884      1.1281566    
   1190400   442.67388      27372.486      1.1472143    
   1190500   430.24302      27607.807      1.1374358    
   1190600   437.33443      27518.333      1.1411341    
   1190700   437.08986      27360.754      1.1477062    
   1190800   436.13492      27755.338      1.1313899    
   1190900   437.68362      27962.992      1.1229881    
   1191000   441.54782      27894.981      1.1257261    
   1191100   432.9918       28051.531      1.1194436    
   1191200   432.03481      27719.018      1.1328723    
   1191300   441.20099      27603.681      1.1376058    
   1191400   438.20614      27557.117      1.139528     
   1191500   444.43886      27679.488      1.1344902    
   1191600   440.91758      27654.982      1.1354955    
   1191700   434            27703.282      1.1335158    
   1191800   435.65088      27900.362      1.1255089    
   1191900   447.95687      27634.722      1.136328     
   1192000   447.47427      27798.435      1.1296358    
   1192100   446.84728      27610.291      1.1373335    
   1192200   442.91609      27914.59       1.1249353    
   1192300   448.99339      27974.863      1.1225116    
   1192400   444.86873      27811.576      1.129102     
   1192500   449.70619      27765.032      1.1309948    
   1192600   446.58637      27663.597      1.1351419    
   1192700   449.86026      28074.965      1.1185092    
   1192800   448.19459      27909.269      1.1251497    
   1192900   443.80902      27764.975      1.1309971    
   1193000   444.88414      27796.543      1.1297127    
   1193100   449.90159      27723.556      1.1326869    
   1193200   447.25686      27926.678      1.1244484    
   1193300   442.21203      27905.463      1.1253032    
   1193400   446.9801       27813.209      1.1290357    
   1193500   449.19973      27979.636      1.1223201    
   1193600   445.73104      28058.89       1.11915      
   1193700   445.55529      28122.479      1.1166195    
   1193800   438.94577      27907.345      1.1252273    
   1193900   448.79976      27968.139      1.1227814    
   1194000   445.40649      28134.186      1.1161548    
   1194100   441.86278      27765.754      1.1309654    
   1194200   457.34537      28051.417      1.1194482    
   1194300   448.89173      27849.792      1.1275527    
   1194400   443.81861      28014.594      1.1209196    
   1194500   435.33537      27994.019      1.1217435    
   1194600   447.00347      27752.578      1.1315023    
   1194700   442.24644      27695.594      1.1338304    
   1194800   437.89741      27765.948      1.1309575    
   1194900   439.78487      27811.696      1.1290972    
   1195000   442.61683      27548.246      1.139895     
   1195100   435.88996      27822.325      1.1286658    
   1195200   438.85568      27769.482      1.1308136    
   1195300   440.76646      27806.004      1.1293283    
   1195400   445.18309      27747.868      1.1316944    
   1195500   433.4666       27749.195      1.1316403    
   1195600   445.29851      27801.668      1.1295044    
   1195700   442.06943      27972.502      1.1226063    
   1195800   433.04688      27668.902      1.1349242    
   1195900   432.87907      27798.794      1.1296212    
   1196000   435.05497      27749.114      1.1316436    
   1196100   434.11173      27671.667      1.1348108    
   1196200   433.17303      27745.866      1.1317761    
   1196300   436.76579      27876.186      1.1264851    
   1196400   439.01006      27631.695      1.1364525    
   1196500   439.0405       27472.316      1.1430455    
   1196600   425.17421      27546.033      1.1399866    
   1196700   438.9104       27600.928      1.1377193    
   1196800   439.14555      27437.697      1.1444877    
   1196900   441.72236      27531.736      1.1405785    
   1197000   434.02191      27444.889      1.1441878    
   1197100   442.60023      27779.243      1.1304162    
   1197200   434.90912      27840.449      1.1279311    
   1197300   443.03174      27590.671      1.1381422    
   1197400   441.49226      27669.091      1.1349165    
   1197500   434.79088      27704.991      1.1334459    
   1197600   435.6469       27892.492      1.1258265    
   1197700   438.21579      28034.92       1.1201069    
   1197800   430.6312       27977.872      1.1223909    
   1197900   450.91164      27925.305      1.1245036    
   1198000   447.98633      27835.891      1.1281158    
   1198100   443.47123      27870.831      1.1267015    
   1198200   442.38449      27834.285      1.1281808    
   1198300   453.12491      27814.676      1.1289762    
   1198400   447.62748      27758.722      1.1312519    
   1198500   447.55137      27626.919      1.1366489    
   1198600   442.27671      28091.197      1.1178629    
   1198700   452.13487      27495.017      1.1421018    
   1198800   451.02619      27592.642      1.1380609    
   1198900   448.59693      27693.055      1.1339344    
   1199000   446.6359       27718.967      1.1328744    
   1199100   447.931        27659.15       1.1353244    
   1199200   448.11649      27622.369      1.1368361    
   1199300   445.76386      27463.843      1.1433982    
   1199400   451.56768      27434.733      1.1446114    
   1199500   453.67087      27346.501      1.1483044    
   1199600   449.92926      27690.82       1.1340259    
   1199700   451.09916      27491.863      1.1422328    
   1199800   443.90795      27500.475      1.1418751    
   1199900   441.41235      27795.812      1.1297424    
   1200000   443.55574      27622.647      1.1368247    
Loop time of 2207.93 on 1 procs for 150000 steps with 2988 atoms

Performance: 5.870 ns/day, 4.089 hours/ns, 67.937 timesteps/s
99.8% CPU use with 1 MPI tasks x 1 OpenMP threads

MPI task timing breakdown:
Section |  min time  |  avg time  |  max time  |%varavg| %total
---------------------------------------------------------------
Pair    | 1857.9     | 1857.9     | 1857.9     |   0.0 | 84.15
Bond    | 60.622     | 60.622     | 60.622     |   0.0 |  2.75
Neigh   | 257.79     | 257.79     | 257.79     |   0.0 | 11.68
Comm    | 9.9566     | 9.9566     | 9.9566     |   0.0 |  0.45
Output  | 0.70339    | 0.70339    | 0.70339    |   0.0 |  0.03
Modify  | 18.248     | 18.248     | 18.248     |   0.0 |  0.83
Other   |            | 2.696      |            |       |  0.12

Nlocal:           2988 ave        2988 max        2988 min
Histogram: 1 0 0 0 0 0 0 0 0 0
Nghost:          14196 ave       14196 max       14196 min
Histogram: 1 0 0 0 0 0 0 0 0 0
Neighs:    1.15415e+06 ave 1.15415e+06 max 1.15415e+06 min
Histogram: 1 0 0 0 0 0 0 0 0 0

Total # of neighbors = 1154148
Ave neighs/atom = 386.26104
Ave special neighs/atom = 12.156627
Neighbor list builds = 8835
Dangerous builds = 2
unfix			1
#final
write_data		thermal_expansion_after_glass_transition.data
System init for write_data ...
Generated 153 of 153 mixed pair_coeff terms from geometric mixing rule

#parameter
neighbor		2.0 binin
ERROR: Illegal neighbor command (src/neighbor.cpp:2444)
Last command: neighbor		2.0 binin
