LAMMPS (23 Jun 2022 - Update 1)
OMP_NUM_THREADS environment is not set. Defaulting to 1 thread. (src/comm.cpp:98)
  using 1 OpenMP thread(s) per MPI task
Loaded 1 plugins from C:\Users\HP\AppData\Local\LAMMPS 64-bit 23Jun2022\plugins
# Initialization
units			real
dimension		3
processors		* * *
boundary		p p p
atom_style		full
pair_style		lj/cut 10.0
bond_style		harmonic
angle_style 	harmonic
read_data		after_cross_linking_correct.data
Reading data file ...
  orthogonal box = (30.222448 27.307948 30.19145) to (59.884552 56.970052 59.853554)
  1 by 1 by 1 MPI processor grid
  reading atoms ...
  2988 atoms
  reading velocities ...
  2988 velocities
  scanning bonds ...
  4 = max bonds/atom
  scanning angles ...
  6 = max angles/atom
  reading bonds ...
  3044 bonds
  reading angles ...
  5800 angles
Finding 1-2 1-3 1-4 neighbors ...
  special bond factors lj:    0        0        0       
  special bond factors coul:  0        0        0       
     4 = max # of 1-2 neighbors
     7 = max # of 1-3 neighbors
    16 = max # of 1-4 neighbors
    20 = max # of special neighbors
  special bonds CPU = 0.004 seconds
  read_data CPU = 0.067 seconds

#output

# going from 0-70 in steps of 10

thermo			100
thermo_style	custom step temp vol density

# npt for 150ps
fix			1 all npt temp 273 273 1000 iso 1 1 100
run			150000
Generated 153 of 153 mixed pair_coeff terms from geometric mixing rule
Neighbor list info ...
  update every 1 steps, delay 10 steps, check yes
  max neighbors/atom: 2000, page size: 100000
  master list distance cutoff = 12
  ghost atom cutoff = 12
  binsize = 6, bins = 5 5 5
  1 neighbor lists, perpetual/occasional/extra = 1 0 0
  (1) pair lj/cut, perpetual
      attributes: half, newton on
      pair build: half/bin/newton
      stencil: half/bin/3d
      bin: standard
WARNING: Inconsistent image flags (src/domain.cpp:819)
Per MPI rank memory allocation (min/avg/max) = 23.26 | 23.26 | 23.26 Mbytes
   Step          Temp          Volume        Density    
         0   296.64116      26097.918      1.2032419    
       100   302.43413      25848.561      1.2148493    
       200   297.56293      26015.692      1.2070449    
       300   299.54165      26066.268      1.2047029    
       400   292.0103       25995.171      1.2079977    
       500   289.26426      26029.697      1.2063954    
       600   294.14343      26175.196      1.1996895    
       700   291.30251      26239.266      1.1967601    
       800   290.76808      26136.884      1.201448     
       900   290.66523      26095.196      1.2033674    
      1000   291.31532      25902.779      1.2123065    
      1100   294.49944      26035.65       1.2061196    
      1200   287.54477      26200.781      1.198518     
      1300   284.68757      26202.408      1.1984436    
      1400   290.09528      26073.346      1.2043758    
      1500   285.59525      26128.961      1.2018123    
      1600   281.23519      26163.309      1.2002346    
      1700   284.03019      26049.853      1.205462     
      1800   283.78276      26078.576      1.2041343    
      1900   289.35601      25931.52       1.2109629    
      2000   284.54801      25962.889      1.2094997    
      2100   279.38213      25963.03       1.2094932    
      2200   280.22113      25989.539      1.2082595    
      2300   277.14475      25801.327      1.2170733    
      2400   276.83412      26068.346      1.2046068    
      2500   281.37128      25948.768      1.2101579    
      2600   280.05812      26019.183      1.2068829    
      2700   280.43244      26025.021      1.2066122    
      2800   276.38505      26203.107      1.1984116    
      2900   272.48512      26193.871      1.1988342    
      3000   276.4728       26237.841      1.1968251    
      3100   269.31398      26164.426      1.2001833    
      3200   274.90239      26151.254      1.2007878    
      3300   272.47068      26107.556      1.2027977    
      3400   272.98931      26023.741      1.2066715    
      3500   270.78067      26080.329      1.2040534    
      3600   274.33846      25938.369      1.2106431    
      3700   274.75473      26148.534      1.2009127    
      3800   272.45164      26096.288      1.203317     
      3900   270.46501      26105.131      1.2029094    
      4000   269.97555      26269.382      1.1953881    
      4100   269.55869      26302.274      1.1938932    
      4200   268.23882      26142.671      1.2011821    
      4300   272.90059      25815.212      1.2164187    
      4400   265.77928      25922.063      1.2114046    
      4500   268.43816      26167.528      1.200041     
      4600   266.57729      25977.316      1.208828     
      4700   270.9633       25926.259      1.2112086    
      4800   270.97902      25885.827      1.2131004    
      4900   264.87434      25979.628      1.2087205    
      5000   267.97656      26163.939      1.2002057    
      5100   265.83354      26229.99       1.1971834    
      5200   265.8784       26078.378      1.2041434    
      5300   267.49323      25996.236      1.2079482    
      5400   266.59153      26179.102      1.1995105    
      5500   271.27298      26100.64       1.2031164    
      5600   263.00851      26074.745      1.2043112    
      5700   269.77489      26202.15       1.1984554    
      5800   266.66437      26327.585      1.1927454    
      5900   275.91645      26199.818      1.1985621    
      6000   273.74876      26029.255      1.2064159    
      6100   267.18868      25935.395      1.2107819    
      6200   270.17602      26207.605      1.1982059    
      6300   270.30965      26219.3        1.1976715    
      6400   272.91077      26214.885      1.1978732    
      6500   275.18706      26030.605      1.2063533    
      6600   278.40964      25976.894      1.2088476    
      6700   274.08551      26165.66       1.2001267    
      6800   274.8873       26182.271      1.1993653    
      6900   271.32526      26027.578      1.2064936    
      7000   275.72131      26003.312      1.2076195    
      7100   273.50887      26012.903      1.2071743    
      7200   277.31215      26029.894      1.2063863    
      7300   282.86451      26094.814      1.203385     
      7400   275.79885      26036.031      1.2061019    
      7500   274.54334      26160.656      1.2003563    
      7600   270.84796      26112.481      1.2025708    
      7700   266.78575      26114.314      1.2024864    
      7800   278.78371      26175.251      1.199687     
      7900   278.69292      25973.196      1.2090198    
      8000   273.50373      25824.27       1.2159921    
      8100   279.81842      26090.62       1.2035784    
      8200   281.82253      25859.556      1.2143328    
      8300   279.20131      25899.616      1.2124545    
      8400   278.44541      25716.127      1.2211056    
      8500   276.00384      25859.831      1.2143199    
      8600   269.63372      25900.696      1.212404     
      8700   277.45757      26050.724      1.2054217    
      8800   275.83076      26004.489      1.2075649    
      8900   269.72828      26073.544      1.2043667    
      9000   272.02532      26146.588      1.2010021    
      9100   278.56139      26219.623      1.1976567    
      9200   272.79538      26072.993      1.2043921    
      9300   272.55582      25868.092      1.2139321    
      9400   272.45549      26015.566      1.2070507    
      9500   268.25856      25934.195      1.2108379    
      9600   274.05423      25969.069      1.2092119    
      9700   269.38871      25976.095      1.2088848    
      9800   269.61884      25917.904      1.211599     
      9900   269.88878      25873.261      1.2136896    
     10000   269.58399      25887.754      1.2130101    
     10100   271.59822      26080.088      1.2040644    
     10200   275.24546      25868.156      1.2139291    
     10300   269.1878       25906.92       1.2121127    
     10400   264.61576      26016.382      1.2070129    
     10500   264.40271      26170.188      1.1999191    
     10600   272.14828      25862.449      1.214197     
     10700   268.49959      26036.232      1.2060926    
     10800   269.8673       26098.728      1.2032045    
     10900   276.32287      26064.351      1.2047915    
     11000   266.78309      26174.73       1.1997109    
     11100   268.9724       26386.776      1.1900699    
     11200   264.09659      26181.752      1.1993891    
     11300   269.1467       26073.548      1.2043665    
     11400   272.78341      26093.023      1.2034676    
     11500   269.11474      26106.385      1.2028516    
     11600   273.11521      25977.979      1.2087972    
     11700   272.10867      26074.864      1.2043057    
     11800   267.64796      26061.825      1.2049082    
     11900   273.47148      26123.159      1.2020793    
     12000   279.12689      25902.624      1.2123138    
     12100   275.45287      25944.129      1.2103743    
     12200   273.14788      25963.09       1.2094904    
     12300   276.50887      25876.837      1.2135218    
     12400   274.78185      25943.947      1.2103828    
     12500   272.14354      26009.103      1.2073507    
     12600   278.68591      25876.705      1.213528     
     12700   282.56828      25834.047      1.2155319    
     12800   275.36733      25827.908      1.2158208    
     12900   274.36505      25868.901      1.2138942    
     13000   276.35883      26074.766      1.2043102    
     13100   278.28246      26064.263      1.2047955    
     13200   280.37768      25906.406      1.2121368    
     13300   282.55584      25897.109      1.2125719    
     13400   277.2418       25767.246      1.2186831    
     13500   279.42097      25771.675      1.2184736    
     13600   284.50052      25657.238      1.2239084    
     13700   275.7932       25845.11       1.2150116    
     13800   278.74004      25919.459      1.2115263    
     13900   282.15059      25866.757      1.2139947    
     14000   277.16519      25903.019      1.2122952    
     14100   280.15636      26103.234      1.2029968    
     14200   274.70112      25994.68       1.2080206    
     14300   272.78899      25845.152      1.2150096    
     14400   276.81285      25837.179      1.2153845    
     14500   277.83047      25932.505      1.2109169    
     14600   276.07         26043.227      1.2057687    
     14700   278.73693      25904.922      1.2122062    
     14800   271.06551      26098.966      1.2031936    
     14900   273.04119      25890.632      1.2128753    
     15000   273.98022      25907.197      1.2120998    
     15100   273.96988      25900.597      1.2124086    
     15200   278.75495      25595.548      1.2268582    
     15300   273.46149      25748.015      1.2195933    
     15400   275.56781      25983.778      1.2085274    
     15500   274.53322      26054.483      1.2052478    
     15600   272.55858      26044.482      1.2057106    
     15700   271.16407      26157.223      1.2005138    
     15800   273.85943      26245.206      1.1964893    
     15900   264.9747       26310.1        1.1935381    
     16000   271.85078      26126.335      1.2019331    
     16100   270.76212      25937.514      1.210683     
     16200   275.66825      25927.554      1.2111481    
     16300   271.27421      25702.167      1.2217689    
     16400   269.37864      25770.036      1.2185511    
     16500   270.86728      25646.146      1.2244377    
     16600   266.36266      25903.003      1.212296     
     16700   278.19758      26002.012      1.2076799    
     16800   263.15478      26015.444      1.2070563    
     16900   269.93432      26095.55       1.2033511    
     17000   269.57547      25849.084      1.2148248    
     17100   272.73639      25699.46       1.2218976    
     17200   273.3891       25986.241      1.2084128    
     17300   268.94388      26112.139      1.2025866    
     17400   268.4099       25973.168      1.2090211    
     17500   273.46396      25821.461      1.2161243    
     17600   276.37421      26013.683      1.2071381    
     17700   268.56173      26135.008      1.2015342    
     17800   272.24769      25968.01       1.2092612    
     17900   273.47143      25889.167      1.2129439    
     18000   269.33972      25964.123      1.2094422    
     18100   267.30076      26006.343      1.2074788    
     18200   271.97341      25929.385      1.2110625    
     18300   272.57367      26144.767      1.2010858    
     18400   270.94292      25950.702      1.2100677    
     18500   273.98939      25918.524      1.2115701    
     18600   271.82591      26164.858      1.2001635    
     18700   273.32165      25913.741      1.2117937    
     18800   273.66563      26034.115      1.2061907    
     18900   277.77069      25983.768      1.2085278    
     19000   278.78221      25924.275      1.2113013    
     19100   276.27232      25942.242      1.2104624    
     19200   280.92149      25979.192      1.2087407    
     19300   276.68466      25963.85       1.209455     
     19400   275.37069      25968.395      1.2092433    
     19500   274.855        25938.737      1.2106259    
     19600   275.58825      25860.046      1.2143098    
     19700   277.8517       26012.052      1.2072138    
     19800   279.32067      25758.366      1.2191033    
     19900   279.984        25886.171      1.2130843    
     20000   281.91761      25858.38       1.2143881    
     20100   281.07002      26030.973      1.2063363    
     20200   272.78898      26014.413      1.2071042    
     20300   277.89868      25853.807      1.2146028    
     20400   278.96934      25917.259      1.2116292    
     20500   276.23275      25726.267      1.2206243    
     20600   280.15757      25923.617      1.211332     
     20700   268.08815      26071.266      1.2044719    
     20800   273.41025      26288.212      1.1945319    
     20900   270.42639      26165.754      1.2001224    
     21000   277.03232      26046.319      1.2056256    
     21100   272.3245       26145.428      1.2010554    
     21200   278.1601       26136.126      1.2014829    
     21300   268.23593      26049.066      1.2054984    
     21400   271.24104      26106.163      1.2028618    
     21500   269.14264      26103.046      1.2030055    
     21600   273.53537      26133.93       1.2015838    
     21700   267.82964      26042.619      1.2057968    
     21800   271.06473      25856.999      1.2144529    
     21900   271.38327      25794.113      1.2174137    
     22000   269.90596      25780.717      1.2180463    
     22100   273.72756      25991.497      1.2081685    
     22200   274.22029      26059.655      1.2050086    
     22300   276.72411      26027.958      1.206476     
     22400   271.09386      25867.465      1.2139615    
     22500   266.62646      25960.679      1.2096027    
     22600   278.22595      25892.46       1.2127896    
     22700   268.73405      25996.633      1.2079298    
     22800   267.99964      26027.675      1.2064891    
     22900   270.11487      25997.042      1.2079108    
     23000   268.74309      25811.252      1.2166054    
     23100   280.98521      25801.849      1.2170487    
     23200   273.19701      25849.174      1.2148205    
     23300   269.26127      25897.98       1.2125311    
     23400   274.15435      25882.903      1.2132375    
     23500   267.98892      26038.513      1.205987     
     23600   272.47385      25970.392      1.2091503    
     23700   275.16927      25886.131      1.2130862    
     23800   266.8546       25955.602      1.2098393    
     23900   274.47653      26078.395      1.2041427    
     24000   276.0302       25979.83       1.208711     
     24100   275.20665      25876.867      1.2135205    
     24200   269.28356      25763.074      1.2188805    
     24300   268.95875      25839.634      1.215269     
     24400   272.23608      25951.432      1.2100337    
     24500   275.41855      25993.621      1.2080697    
     24600   280.64424      25826.654      1.2158798    
     24700   277.87403      25777.728      1.2181875    
     24800   272.18129      25759.966      1.2190275    
     24900   275.59251      25941.907      1.210478     
     25000   272.2971       25974.915      1.2089397    
     25100   271.03569      25740.664      1.2199416    
     25200   273.73482      25884.308      1.2131716    
     25300   272.36875      25953.321      1.2099456    
     25400   267.94885      25993.076      1.2080951    
     25500   269.85605      26121.506      1.2021553    
     25600   274.82816      26013.418      1.2071504    
     25700   272.39075      25989.55       1.208259     
     25800   274.1298       25910.481      1.2119461    
     25900   275.05881      25922.206      1.2113979    
     26000   275.04313      25894.789      1.2126806    
     26100   278.39589      26252.261      1.1961677    
     26200   272.07345      26245.952      1.1964553    
     26300   269.13122      26197.404      1.1986725    
     26400   272.60316      26216.915      1.1977804    
     26500   268.9943       26088.785      1.2036631    
     26600   272.34611      25891.792      1.2128209    
     26700   266.45743      25800.809      1.2170978    
     26800   268.98656      25815.938      1.2163845    
     26900   264.38317      25893.931      1.2127208    
     27000   268.72187      26008.79       1.2073652    
     27100   268.47039      25956.616      1.209792     
     27200   265.95896      25987.876      1.2083368    
     27300   265.85625      25830.657      1.2156914    
     27400   268.16808      25958.915      1.2096849    
     27500   262.78203      26087.997      1.2036994    
     27600   265.44845      26079.047      1.2041125    
     27700   267.19713      25881.605      1.2132983    
     27800   266.16001      26017.608      1.206956     
     27900   261.89749      25871.047      1.2137935    
     28000   269.55732      26186.62       1.1991661    
     28100   263.67004      26211.248      1.1980394    
     28200   267.9209       26067.761      1.2046339    
     28300   265.00073      26096.96       1.2032861    
     28400   267.0133       26192.346      1.1989039    
     28500   276.7997       26129.49       1.201788     
     28600   263.67013      26120.555      1.2021991    
     28700   266.42134      26172.674      1.1998051    
     28800   268.60821      26367.15       1.1909557    
     28900   270.92929      25979.738      1.2087153    
     29000   274.21052      26035.349      1.2061335    
     29100   274.90243      25990.023      1.208237     
     29200   277.03972      26121.058      1.2021759    
     29300   274.3217       26000.359      1.2077567    
     29400   265.9235       26109.66       1.2027007    
     29500   272.52408      26121.929      1.2021358    
     29600   273.77593      26123.01       1.2020861    
     29700   270.7628       26103.874      1.2029673    
     29800   272.61352      26160.759      1.2003516    
     29900   271.99158      26220.503      1.1976165    
     30000   273.65221      26278.384      1.1949786    
     30100   271.57488      26222.754      1.1975137    
     30200   271.79103      26125.427      1.2019749    
     30300   273.66551      26226.914      1.1973238    
     30400   269.05156      26237.166      1.1968559    
     30500   277.8186       26323.283      1.1929404    
     30600   276.64875      26169.123      1.1999679    
     30700   265.10724      26028.357      1.2064576    
     30800   275.60777      26164.033      1.2002014    
     30900   277.77208      26106.267      1.202857     
     31000   275.09012      26232.86       1.1970524    
     31100   269.23708      26069.327      1.2045615    
     31200   275.44738      26243.938      1.1965471    
     31300   272.53912      26130.894      1.2017234    
     31400   278.69549      26221.108      1.1975889    
     31500   275.73429      26282.897      1.1947734    
     31600   279.45908      26128.443      1.2018361    
     31700   276.05618      26015.814      1.2070392    
     31800   275.59128      26105.107      1.2029105    
     31900   270.32844      26285.267      1.1946657    
     32000   277.20807      26300.16       1.1939892    
     32100   274.38862      26228.411      1.1972554    
     32200   276.19066      25894.847      1.2126779    
     32300   276.0515       26098.472      1.2032163    
     32400   278.0193       26030.981      1.2063359    
     32500   277.02151      25995.733      1.2079716    
     32600   269.93157      25996.101      1.2079545    
     32700   270.6238       26026.053      1.2065643    
     32800   275.94818      25960.278      1.2096214    
     32900   273.43004      26032.061      1.2062859    
     33000   270.60553      26147.897      1.200942     
     33100   266.89281      26108.852      1.202738     
     33200   267.60182      26012.161      1.2072087    
     33300   271.08829      26174.092      1.1997401    
     33400   267.17983      26096.71       1.2032976    
     33500   271.00715      26109.51       1.2027077    
     33600   265.26162      26025.176      1.206605     
     33700   266.51599      25936.865      1.2107133    
     33800   270.28263      26057.57       1.205105     
     33900   269.54432      26078.66       1.2041304    
     34000   262.51897      26022.566      1.206726     
     34100   268.21973      26265.054      1.1955851    
     34200   267.27703      26077.456      1.204186     
     34300   272.33762      26332.38       1.1925283    
     34400   273.19198      26345.346      1.1919413    
     34500   270.41316      26140.496      1.201282     
     34600   267.18152      26176.849      1.1996137    
     34700   267.97191      26313.969      1.1933626    
     34800   274.45741      26319.529      1.1931105    
     34900   268.44961      26282.166      1.1948067    
     35000   273.26044      26181.193      1.1994147    
     35100   268.2074       26040.856      1.2058784    
     35200   274.7247       26093.341      1.2034529    
     35300   268.71289      26217.177      1.1977684    
     35400   272.90116      26004.274      1.2075749    
     35500   272.95052      26044.028      1.2057316    
     35600   270.18954      25926.691      1.2111884    
     35700   269.60948      26005.548      1.2075157    
     35800   270.97198      26038.741      1.2059764    
     35900   272.06085      26143.875      1.2011267    
     36000   268.14045      26049.609      1.2054733    
     36100   275.10967      25992.229      1.2081344    
     36200   271.54764      26086.533      1.203767     
     36300   273.0192       26012.856      1.2071764    
     36400   274.03657      25910.443      1.2119479    
     36500   271.88744      25949.377      1.2101295    
     36600   268.97518      26125.283      1.2019815    
     36700   273.30052      25906.797      1.2121185    
     36800   276.86371      25871.938      1.2137516    
     36900   276.26501      25965.714      1.2093681    
     37000   274.25257      26034.37       1.2061789    
     37100   278.59853      26050.629      1.2054261    
     37200   270.07781      25922.87       1.2113669    
     37300   272.41666      25836.455      1.2154186    
     37400   279.65377      25853.334      1.2146251    
     37500   275.85561      26032.597      1.2062611    
     37600   279.08831      26191.104      1.1989608    
     37700   274.64302      26172.332      1.1998207    
     37800   274.60392      26055.668      1.205193     
     37900   267.96443      26006.351      1.2074784    
     38000   278.72579      25937.592      1.2106794    
     38100   274.9654       25906.194      1.2121467    
     38200   270.1539       25992.554      1.2081194    
     38300   277.20059      25994.104      1.2080473    
     38400   273.7008       26033.81       1.2062048    
     38500   270.76178      25913.273      1.2118156    
     38600   273.38061      26196.651      1.1987069    
     38700   270.3193       26061.819      1.2049085    
     38800   272.46642      25993.578      1.2080718    
     38900   272.30163      25904.259      1.2122372    
     39000   273.68018      25899.509      1.2124596    
     39100   266.01131      26159.725      1.200399     
     39200   271.00517      26157.116      1.2005187    
     39300   273.20108      26158.484      1.2004559    
     39400   273.15476      26130.009      1.2017641    
     39500   270.39308      26062.603      1.2048723    
     39600   266.59007      26153.261      1.2006957    
     39700   267.36861      26190.985      1.1989663    
     39800   273.90751      25888.416      1.2129791    
     39900   268.02108      26025.939      1.2065696    
     40000   269.99988      25902.371      1.2123256    
     40100   265.83873      26235.131      1.1969488    
     40200   267.77141      26064.745      1.2047732    
     40300   270.9743       25918.39       1.2115763    
     40400   269.91072      25829.923      1.2157259    
     40500   269.77167      25801.149      1.2170817    
     40600   267.22309      26008.993      1.2073558    
     40700   262.26743      25922.922      1.2113645    
     40800   264.87972      26047.825      1.2055558    
     40900   272.36644      26067.055      1.2046665    
     41000   269.1877       26047.078      1.2055904    
     41100   264.52763      25828.16       1.2158089    
     41200   270.02831      25891.626      1.2128287    
     41300   265.07618      25965.335      1.2093858    
     41400   266.06692      25872.259      1.2137366    
     41500   269.26217      25810.46       1.2166427    
     41600   268.7099       25896.729      1.2125897    
     41700   274.16048      26085.012      1.2038372    
     41800   271.80451      25921.904      1.2114121    
     41900   271.49704      25927.271      1.2111613    
     42000   271.01538      25993.943      1.2080548    
     42100   269.7724       25730.452      1.2204258    
     42200   274.42655      25979.977      1.2087042    
     42300   269.25918      25934.296      1.2108332    
     42400   278.3342       25892.498      1.2127879    
     42500   269.32479      26205.179      1.1983169    
     42600   269.03919      26174.289      1.1997311    
     42700   273.27415      26050.34       1.2054395    
     42800   271.7888       26021.293      1.206785     
     42900   271.88005      25718.186      1.2210079    
     43000   273.85867      25860.666      1.2142807    
     43100   275.65593      26152.165      1.200746     
     43200   270.18629      25930.481      1.2110114    
     43300   272.09423      26101.814      1.2030622    
     43400   274.18415      26005.735      1.207507     
     43500   269.69638      26100.076      1.2031424    
     43600   269.09708      26128.249      1.2018451    
     43700   269.6985       25957.734      1.2097399    
     43800   270.20012      25867.319      1.2139684    
     43900   273.99387      25806.047      1.2168507    
     44000   274.66524      25956.932      1.2097773    
     44100   277.21485      25974.02       1.2089814    
     44200   273.2041       25914.421      1.2117619    
     44300   274.79595      26085.347      1.2038217    
     44400   273.98102      26253.107      1.1961292    
     44500   274.91912      26279.067      1.1949476    
     44600   274.67121      26155.395      1.2005977    
     44700   272.87124      25937.121      1.2107013    
     44800   278.95331      25938.918      1.2106175    
     44900   273.41094      26022.526      1.2067279    
     45000   276.9279       26086.105      1.2037868    
     45100   275.35683      25987.422      1.2083579    
     45200   273.43207      26183.607      1.1993041    
     45300   273.66359      25972.947      1.2090314    
     45400   276.06811      25978.964      1.2087514    
     45500   276.16546      26090.301      1.2035931    
     45600   274.09095      26104.864      1.2029217    
     45700   270.76803      26286.762      1.1945978    
     45800   276.76025      26290.43       1.1944311    
     45900   273.52893      26040.348      1.205902     
     46000   275.39565      25931.495      1.210964     
     46100   277.11574      25884.008      1.2131856    
     46200   277.15626      25888.297      1.2129846    
     46300   276.23811      25878.958      1.2134224    
     46400   276.79645      25937.78       1.2106706    
     46500   278.47505      26166.73       1.2000776    
     46600   274.57194      25910.684      1.2119366    
     46700   277.46962      25996.964      1.2079144    
     46800   275.83037      25935.16       1.2107929    
     46900   271.8761       26048.505      1.2055244    
     47000   275.22977      26019.387      1.2068734    
     47100   267.61129      26011.294      1.2072489    
     47200   269.64006      25927.124      1.2111682    
     47300   271.01683      25863.727      1.214137     
     47400   269.80505      25874.268      1.2136423    
     47500   272.13869      26000.09       1.2077692    
     47600   273.06997      25893.616      1.2127355    
     47700   266.99498      25881.983      1.2132806    
     47800   275.44391      26027.44       1.2065       
     47900   265.86751      26191.065      1.1989626    
     48000   268.12011      26044.952      1.2056888    
     48100   272.62158      26121.652      1.2021486    
     48200   265.20801      26033.893      1.206201     
     48300   269.26735      26126.911      1.2019066    
     48400   269.11003      26139.594      1.2013235    
     48500   267.60014      26082.298      1.2039625    
     48600   268.97791      25976.479      1.208867     
     48700   269.93847      25918.168      1.2115867    
     48800   266.11859      26112.014      1.2025923    
     48900   272.60848      26090.384      1.2035893    
     49000   270.5015       26031.877      1.2062944    
     49100   271.66123      26086.084      1.2037877    
     49200   268.83347      26072.369      1.204421     
     49300   271.39416      26089.848      1.2036141    
     49400   274.63558      25935.14       1.2107938    
     49500   272.28666      25905.615      1.2121738    
     49600   270.38444      26109.194      1.2027222    
     49700   275.38316      26072.014      1.2044373    
     49800   267.90655      26231.835      1.1970991    
     49900   270.70198      26199.252      1.1985879    
     50000   280.75222      26301.98       1.1939066    
     50100   281.27332      26192.216      1.1989099    
     50200   274.58596      25956.712      1.2097876    
     50300   280.15839      25889.846      1.2129121    
     50400   274.72911      26011.298      1.2072488    
     50500   272.50585      26162.36       1.2002781    
     50600   278.81873      26170.761      1.1998928    
     50700   274.51069      26065.488      1.2047389    
     50800   274.67503      26079.387      1.2040968    
     50900   278.71398      26188.925      1.1990606    
     51000   279.9802       26104.556      1.2029359    
     51100   279.47786      26293.76       1.1942798    
     51200   276.41031      25983.528      1.208539     
     51300   274.19987      25867.994      1.2139367    
     51400   272.15085      25887.888      1.2130038    
     51500   276.99576      25943.77       1.210391     
     51600   276.28511      26113.49       1.2025243    
     51700   276.09789      26077.08       1.2042034    
     51800   275.40414      26119.078      1.202267     
     51900   276.34494      25944.986      1.2103344    
     52000   270.64571      26108.619      1.2027487    
     52100   272.21709      26107.717      1.2027902    
     52200   273.89203      26250.061      1.196268     
     52300   275.93486      26272.354      1.1952529    
     52400   277.6883       26137.045      1.2014406    
     52500   269.19376      25957.242      1.2097629    
     52600   270.0581       26049.603      1.2054736    
     52700   275.08401      25987.884      1.2083364    
     52800   273.00069      25874.14       1.2136483    
     52900   271.37939      26138.524      1.2013726    
     53000   267.13582      26224.765      1.1974219    
     53100   272.1592       26181.341      1.1994079    
     53200   270.91701      26077.391      1.204189     
     53300   271.32848      26020.728      1.2068112    
     53400   270.97515      26295.235      1.1942128    
     53500   270.51661      26215.465      1.1978466    
     53600   271.46075      26067.989      1.2046233    
     53700   278.47218      25878.492      1.2134443    
     53800   273.70214      26246.536      1.1964286    
     53900   272.84083      25961.19       1.2095789    
     54000   277.05845      25755.456      1.219241     
     54100   268.14877      25663.61       1.2236044    
     54200   272.58723      25671.895      1.2232095    
     54300   271.21896      25722.349      1.2208103    
     54400   270.32304      25898.126      1.2125243    
     54500   271.72782      25953.464      1.209939     
     54600   276.58414      25895.076      1.2126671    
     54700   267.96831      25796.274      1.2173118    
     54800   272.46761      25862.372      1.2142006    
     54900   271.55793      25874.467      1.213633     
     55000   269.66774      25986.929      1.2083809    
     55100   271.14722      25948.021      1.2101928    
     55200   266.46214      25966.948      1.2093107    
     55300   267.36168      25709.557      1.2214177    
     55400   271.43179      25911.252      1.2119101    
     55500   265.81525      25970.417      1.2091491    
     55600   268.56582      25947.837      1.2102014    
     55700   265.633        25856.3        1.2144857    
     55800   270.68287      25796.125      1.2173188    
     55900   263.07916      25887.279      1.2130324    
     56000   265.77414      25904.66       1.2122185    
     56100   270.06127      26030.912      1.2063391    
     56200   264.96937      26025.154      1.206606     
     56300   262.39707      26077.807      1.2041698    
     56400   264.07824      25897.262      1.2125647    
     56500   265.95188      25923.302      1.2113468    
     56600   267.24682      25940.511      1.2105431    
     56700   271.49529      26034.592      1.2061686    
     56800   265.52007      25858.42       1.2143862    
     56900   265.78847      25954.404      1.2098951    
     57000   264.34541      25818.555      1.2162612    
     57100   266.03938      26040.322      1.2059032    
     57200   272.96769      25857.456      1.2144314    
     57300   272.61422      25582.91       1.2274642    
     57400   268.361        25786.769      1.2177605    
     57500   272.50775      25805.513      1.2168759    
     57600   267.08477      25754.545      1.2192841    
     57700   270.49611      26062.266      1.2048879    
     57800   272.04313      25860.439      1.2142913    
     57900   270.77943      25816.373      1.216364     
     58000   275.03049      25782.682      1.2179535    
     58100   271.20723      25869.079      1.2138858    
     58200   274.57502      26151.389      1.2007816    
     58300   274.05724      26101.723      1.2030665    
     58400   275.09739      25927.545      1.2111485    
     58500   273.14805      26046.294      1.2056267    
     58600   277.47486      25957.054      1.2097716    
     58700   275.08525      25820.781      1.2161564    
     58800   273.77319      25809.7        1.2166785    
     58900   272.03143      25813.266      1.2165104    
     59000   271.2667       25825.302      1.2159434    
     59100   276.35622      25813.447      1.2165019    
     59200   277.08758      25727.211      1.2205796    
     59300   269.08102      25827.644      1.2158332    
     59400   272.1707       25825.875      1.2159165    
     59500   274.08763      25895.654      1.2126401    
     59600   274.42834      25793.164      1.2174585    
     59700   274.21183      26023.496      1.2066829    
     59800   275.69668      26145.119      1.2010696    
     59900   275.0813       25878.228      1.2134566    
     60000   272.94083      25856.814      1.2144616    
     60100   275.2453       25958.785      1.209691     
     60200   272.38248      25926.993      1.2111743    
     60300   273.66677      26007.403      1.2074295    
     60400   276.33514      25953.884      1.2099194    
     60500   269.52296      25919.072      1.2115444    
     60600   267.93211      25911.941      1.2118778    
     60700   275.86318      25792.799      1.2174758    
     60800   276.7498       25815.645      1.2163983    
     60900   281.07449      25800.171      1.2171279    
     61000   269.27727      25859.547      1.2143332    
     61100   271.94867      25789.831      1.2176159    
     61200   269.08462      25723.362      1.2207622    
     61300   267.68511      25612.882      1.2260279    
     61400   270.07163      25894.116      1.2127121    
     61500   266.34527      25852.9        1.2146455    
     61600   276.72573      25798.091      1.217226     
     61700   273.6606       25613.12       1.2260165    
     61800   268.68177      25900.581      1.2124094    
     61900   269.51718      25739.167      1.2200126    
     62000   267.43663      25931.059      1.2109844    
     62100   268.49379      25711.939      1.2213045    
     62200   272.54914      25680.847      1.2227832    
     62300   268.38133      25694.019      1.2221563    
     62400   268.36344      25858.055      1.2144033    
     62500   269.51206      25938.135      1.210654     
     62600   266.77774      26029.788      1.2063912    
     62700   269.12196      26019.373      1.2068741    
     62800   266.695        25891.951      1.2128135    
     62900   263.13102      26067.813      1.2046314    
     63000   269.2927       25928.621      1.2110983    
     63100   264.96235      26078.128      1.204155     
     63200   267.87538      26072.555      1.2044124    
     63300   271.46908      26136.175      1.2014806    
     63400   270.52356      25912          1.2118751    
     63500   270.35663      25899.672      1.2124519    
     63600   272.47764      25975.374      1.2089184    
     63700   265.84352      25863.258      1.214159     
     63800   271.34949      25727.457      1.2205679    
     63900   270.87991      25661.634      1.2236987    
     64000   270.85004      25827.906      1.2158209    
     64100   266.48083      25937.985      1.210661     
     64200   269.77427      25953.04       1.2099587    
     64300   269.29149      25926.799      1.2111833    
     64400   268.78408      26006.941      1.207451     
     64500   270.68578      25983.475      1.2085415    
     64600   276.64889      25967.48       1.2092859    
     64700   271.8536       25934.46       1.2108256    
     64800   270.45888      25990.557      1.2082122    
     64900   279.83463      26028.765      1.2064386    
     65000   273.00906      25900.126      1.2124307    
     65100   279.11912      26038.304      1.2059967    
     65200   275.05734      26095.458      1.2033553    
     65300   273.08609      25927.888      1.2111325    
     65400   277.03839      25948.242      1.2101825    
     65500   271.88186      26015.563      1.2070509    
     65600   274.17957      26021.428      1.2067788    
     65700   274.14084      25726.951      1.2205919    
     65800   274.95622      25785.54       1.2178185    
     65900   273.71735      26002.766      1.2076449    
     66000   273.7819       26089.771      1.2036176    
     66100   273.5856       25831.425      1.2156552    
     66200   278.87786      25953.579      1.2099336    
     66300   275.46483      25965.706      1.2093685    
     66400   277.51651      25993.543      1.2080734    
     66500   269.78564      25943.6        1.210399     
     66600   274.03733      26075.863      1.2042595    
     66700   271.50409      26070.225      1.20452      
     66800   271.79701      25935.28       1.2107873    
     66900   270.9781       25993.803      1.2080613    
     67000   278.33121      26228.828      1.1972364    
     67100   265.2063       26063.103      1.2048492    
     67200   270.66816      25911.32       1.2119069    
     67300   269.91494      25865.508      1.2140534    
     67400   275.20684      25954.499      1.2098907    
     67500   267.50011      25949.904      1.2101049    
     67600   261.67026      25897.974      1.2125314    
     67700   275.02226      25852.688      1.2146554    
     67800   267.75546      25873.439      1.2136812    
     67900   269.5542       25792.396      1.2174948    
     68000   273.79876      25815.946      1.2163841    
     68100   266.7052       25859.216      1.2143488    
     68200   274.0847       25684.619      1.2226036    
     68300   264.25531      25912.159      1.2118677    
     68400   270.69615      25931.986      1.2109411    
     68500   267.69652      25897.093      1.2125727    
     68600   267.90589      25896.66       1.212593     
     68700   268.55882      25880.132      1.2133674    
     68800   266.68739      25818.763      1.2162514    
     68900   263.06107      25699.306      1.2219049    
     69000   266.83285      25551.811      1.2289582    
     69100   266.8225       25735.44       1.2201893    
     69200   266.11134      25654.712      1.2240288    
     69300   261.89187      25761.878      1.218937     
     69400   271.15211      25751.01       1.2194515    
     69500   266.18393      25685.131      1.2225792    
     69600   267.73254      25787.351      1.217733     
     69700   264.69108      25847.61       1.214894     
     69800   263.86159      25861.996      1.2142182    
     69900   264.56844      26099.232      1.2031813    
     70000   262.0175       25907.23       1.2120982    
     70100   262.37881      25844.559      1.2150374    
     70200   269.09887      25820.13       1.216187     
     70300   260.16397      25642.172      1.2246274    
     70400   266.47674      25562.155      1.2284609    
     70500   265.43723      25836.844      1.2154003    
     70600   266.19604      25937.403      1.2106882    
     70700   271.00957      25752.733      1.2193699    
     70800   265.33952      25738.975      1.2200217    
     70900   270.98152      25804.866      1.2169064    
     71000   265.23128      25725.796      1.2206467    
     71100   270.45762      25874.56       1.2136287    
     71200   271.9024       25826.968      1.215865     
     71300   272.52664      25893.881      1.2127231    
     71400   272.31389      25640.138      1.2247246    
     71500   272.13233      25696.679      1.2220298    
     71600   272.92192      25859.193      1.2143499    
     71700   274.03618      25879.157      1.2134131    
     71800   267.5504       25971.284      1.2091088    
     71900   276.09941      25893.552      1.2127385    
     72000   274.61883      25872.283      1.2137355    
     72100   272.90092      25927.249      1.2111623    
     72200   275.38857      25744.699      1.2197504    
     72300   273.3234       25911.063      1.2119189    
     72400   271.90983      26183.04       1.1993301    
     72500   273.73163      25715.214      1.221149     
     72600   279.5356       25612.707      1.2260363    
     72700   276.37605      25733.416      1.2202852    
     72800   273.36374      26061.131      1.2049403    
     72900   269.35072      26101.709      1.2030671    
     73000   272.73915      25945.947      1.2102895    
     73100   277.16503      25837.313      1.2153782    
     73200   275.12865      25966.872      1.2093142    
     73300   270.79549      25856.497      1.2144765    
     73400   272.7016       26048.327      1.2055326    
     73500   270.2297       25956.015      1.20982      
     73600   273.5863       25995.663      1.2079749    
     73700   279.31938      26197.458      1.19867      
     73800   270.55845      26194.162      1.1988209    
     73900   273.45361      26199.576      1.1985731    
     74000   276.7449       25979.15       1.2087427    
     74100   277.09634      25993.878      1.2080578    
     74200   271.17361      26057.755      1.2050964    
     74300   282.00794      25976.224      1.2088788    
     74400   272.76994      26204.414      1.1983518    
     74500   274.94696      26186.198      1.1991854    
     74600   273.40323      26122.743      1.2020984    
     74700   271.44938      26109.217      1.2027211    
     74800   271.14319      25998.384      1.2078484    
     74900   270.52262      26058.966      1.2050404    
     75000   269.39331      25929.918      1.2110377    
     75100   275.01734      26204.848      1.198332     
     75200   273.39984      26137.282      1.2014297    
     75300   268.2133       26102.139      1.2030473    
     75400   271.4127       26184.946      1.1992428    
     75500   273.64774      25923.242      1.2113496    
     75600   272.63616      25866.618      1.2140013    
     75700   270.28108      25874.698      1.2136222    
     75800   267.01952      25881.848      1.2132869    
     75900   267.16573      25934.11       1.2108419    
     76000   270.95779      25964.659      1.2094173    
     76100   275.54202      25933.349      1.2108775    
     76200   265.60411      25996.01       1.2079587    
     76300   274.03353      25793.169      1.2174583    
     76400   271.02887      25846.588      1.2149421    
     76500   273.49941      25923.212      1.2113509    
     76600   265.16028      26056.877      1.205137     
     76700   268.88308      26003.699      1.2076016    
     76800   269.14245      26029.911      1.2063855    
     76900   266.35002      25943.955      1.2103824    
     77000   271.25281      25965.763      1.2093659    
     77100   268.02146      25923.686      1.2113288    
     77200   272.10098      25818.767      1.2162512    
     77300   264.60606      25649.469      1.224279     
     77400   267.81226      25860.868      1.2142712    
     77500   266.8512       26180.605      1.1994416    
     77600   275.62306      26064.14       1.2048012    
     77700   267.88582      26009.258      1.2073435    
     77800   265.77805      25947.618      1.2102116    
     77900   272.40768      25939.282      1.2106005    
     78000   276.15733      26157.181      1.2005158    
     78100   268.77763      26113.517      1.2025231    
     78200   272.439        26195.475      1.1987608    
     78300   267.57723      26164.035      1.2002013    
     78400   273.19449      25998.415      1.207847     
     78500   270.44993      25963.487      1.2094719    
     78600   273.62498      25924.811      1.2112762    
     78700   277.23749      25882.188      1.213271     
     78800   270.70632      26007.871      1.2074078    
     78900   269.77719      26043.697      1.2057469    
     79000   278.595        25990.746      1.2082034    
     79100   273.92974      26069.981      1.2045313    
     79200   278.26199      25884.829      1.2131472    
     79300   274.52591      26093.383      1.203451     
     79400   275.01792      26073.012      1.2043913    
     79500   275.51655      26083.232      1.2039193    
     79600   276.1713       26046.136      1.205634     
     79700   268.46989      26154.633      1.2006327    
     79800   274.86682      26191.804      1.1989288    
     79900   273.71035      26334.794      1.1924189    
     80000   275.14869      26136.814      1.2014512    
     80100   277.66286      25861.762      1.2142292    
     80200   271.81835      25988.308      1.2083167    
     80300   274.59459      26147.28       1.2009703    
     80400   272.6801       26233.304      1.1970321    
     80500   272.55141      26039.105      1.2059595    
     80600   274.94274      25925.206      1.2112578    
     80700   275.04419      25948.041      1.2101918    
     80800   271.0688       25996.733      1.2079252    
     80900   272.6529       25889.348      1.2129354    
     81000   271.13809      25776.483      1.2182464    
     81100   269.78441      26058.962      1.2050406    
     81200   271.1212       26200.821      1.1985162    
     81300   272.44321      25939.647      1.2105835    
     81400   269.0093       26173.023      1.1997891    
     81500   266.32672      26149.535      1.2008667    
     81600   269.61818      26171.419      1.1998626    
     81700   270.0133       26086.251      1.20378      
     81800   270.35785      25924.402      1.2112953    
     81900   272.64051      26066.518      1.2046913    
     82000   272.52006      26042.057      1.2058228    
     82100   271.45188      25876.094      1.2135567    
     82200   269.35923      25932.575      1.2109136    
     82300   271.20624      25793.604      1.2174378    
     82400   267.91542      25983.79       1.2085268    
     82500   267.54823      25967.528      1.2092837    
     82600   267.40252      25872.604      1.2137204    
     82700   268.9725       25942.81       1.2104359    
     82800   267.4491       26011.221      1.2072523    
     82900   264.58078      25866.311      1.2140157    
     83000   265.99215      25835.183      1.2154784    
     83100   270.28877      25972.229      1.2090648    
     83200   265.57214      26000.428      1.2077535    
     83300   268.34393      26064.297      1.204794     
     83400   267.35419      26054.724      1.2052366    
     83500   264.08034      26024.73       1.2066257    
     83600   263.77617      26065.529      1.204737     
     83700   268.97505      26035.701      1.2061172    
     83800   265.5736       26081.675      1.2039912    
     83900   266.54813      25950.285      1.2100872    
     84000   269.22788      25956.733      1.2097866    
     84100   269.62581      26113.994      1.2025011    
     84200   273.75919      26154.765      1.2006266    
     84300   267.86227      25981.971      1.2086115    
     84400   269.67872      25887.795      1.2130082    
     84500   273.21037      25962.051      1.2095388    
     84600   271.58465      25920.121      1.2114954    
     84700   273.95306      25978.792      1.2087593    
     84800   270.68638      26156.2        1.2005608    
     84900   274.32785      26198.878      1.198605     
     85000   272.66909      26187.838      1.1991103    
     85100   273.50527      26013.216      1.2071598    
     85200   271.41684      25906.722      1.212122     
     85300   275.08308      26001.468      1.2077052    
     85400   279.40858      25958.1        1.2097229    
     85500   273.44568      25950.001      1.2101004    
     85600   272.97036      25954.64       1.2098842    
     85700   279.75314      26065.706      1.2047288    
     85800   278.49876      26028.344      1.2064581    
     85900   272.93107      26280.933      1.1948628    
     86000   276.0193       26097.434      1.2032642    
     86100   276.40409      26077.02       1.2042061    
     86200   276.15485      25968.748      1.2092269    
     86300   273.40417      26116.027      1.2024075    
     86400   277.98992      26098.302      1.2032241    
     86500   272.97512      26027.574      1.2064938    
     86600   270.6056       26097.139      1.2032778    
     86700   271.39558      25923.629      1.2113315    
     86800   271.75617      25759.243      1.2190617    
     86900   273.1865       26035.107      1.2061447    
     87000   269.01215      26251.649      1.1961956    
     87100   271.98012      26186.7        1.1991624    
     87200   271.66836      26225.922      1.1973691    
     87300   276.7358       26030.735      1.2063473    
     87400   272.6298       26000.987      1.2077275    
     87500   278.33011      25818.018      1.2162865    
     87600   273.4727       25876.246      1.2135496    
     87700   269.34331      26119.692      1.2022388    
     87800   269.32881      26044.241      1.2057217    
     87900   271.25763      26268.891      1.1954105    
     88000   270.89498      26157.57       1.2004979    
     88100   271.10153      25933.777      1.2108575    
     88200   269.53344      26116.596      1.2023813    
     88300   275.29755      26106.044      1.2028673    
     88400   270.17751      26121.773      1.2021431    
     88500   270.85859      26166.2        1.2001019    
     88600   267.74495      26188.078      1.1990993    
     88700   266.57566      26234.621      1.196972     
     88800   270.79795      26239.418      1.1967532    
     88900   268.59589      26124.722      1.2020073    
     89000   268.18189      26151.937      1.2007565    
     89100   265.89601      26293.743      1.1942806    
     89200   266.34371      26098.16       1.2032307    
     89300   274.40163      26133.482      1.2016044    
     89400   267.91442      26236.637      1.1968801    
     89500   272.46408      25985.285      1.2084573    
     89600   268.95406      26062.386      1.2048823    
     89700   267.55575      26179.861      1.1994757    
     89800   268.43117      26181.907      1.199382     
     89900   272.48095      26157.159      1.2005168    
     90000   268.77794      26019.817      1.2068535    
     90100   267.1035       25962.08       1.2095374    
     90200   266.62507      26080.704      1.204036     
     90300   270.45934      25977.033      1.2088412    
     90400   270.88469      26037.945      1.2060133    
     90500   267.23508      25975.796      1.2088987    
     90600   270.39262      26124.203      1.2020312    
     90700   268.34824      26240.286      1.1967136    
     90800   268.03914      26300.017      1.1939957    
     90900   271.12571      26348.089      1.1918172    
     91000   272.52094      26155.961      1.2005717    
     91100   265.77641      26270.345      1.1953443    
     91200   272.78464      26170.359      1.1999112    
     91300   273.01874      26214.349      1.1978977    
     91400   278.37737      26093.499      1.2034456    
     91500   273.51636      26005.789      1.2075045    
     91600   272.36052      26069.567      1.2045504    
     91700   274.82645      25990.71       1.2082051    
     91800   274.09101      25959.197      1.2096718    
     91900   272.77998      26107.032      1.2028218    
     92000   274.93644      26144.936      1.201078     
     92100   277.99884      25952.555      1.2099813    
     92200   272.91617      25894.387      1.2126994    
     92300   278.55332      25967.332      1.2092928    
     92400   280.99498      26048.669      1.2055168    
     92500   271.64851      25975.11       1.2089307    
     92600   278.04469      25970.963      1.2091237    
     92700   274.04633      25858.036      1.2144042    
     92800   272.40168      25919.665      1.2115167    
     92900   279.50086      25817.53       1.2163095    
     93000   267.93885      25920.435      1.2114807    
     93100   274.16913      25891.173      1.2128499    
     93200   275.08514      25695.938      1.222065     
     93300   277.03526      25744.104      1.2197786    
     93400   275.2642       26031.414      1.2063159    
     93500   274.52044      26134.919      1.2015384    
     93600   274.55096      26030.927      1.2063384    
     93700   275.05284      25858.314      1.2143911    
     93800   274.3256       26110.13       1.2026791    
     93900   270.1407       26194.712      1.1987957    
     94000   273.60931      26168.904      1.1999779    
     94100   273.87674      25967.092      1.209304     
     94200   268.59779      25873.486      1.2136791    
     94300   275.68388      25925.541      1.2112421    
     94400   271.87425      25957.386      1.2097561    
     94500   267.70437      25801.396      1.2170701    
     94600   270.84981      25796.746      1.2172895    
     94700   270.67689      25953.903      1.2099185    
     94800   269.48893      25858.484      1.2143831    
     94900   271.28662      26018.911      1.2068955    
     95000   266.32584      25945.43       1.2103136    
     95100   266.97485      25972.893      1.2090339    
     95200   267.40306      25872.181      1.2137403    
     95300   266.89541      25913.152      1.2118212    
     95400   273.1496       25869.774      1.2138532    
     95500   271.01434      26050.932      1.2054121    
     95600   271.43493      25892.133      1.2128049    
     95700   269.92385      26004.34       1.2075718    
     95800   270.37372      25944.313      1.2103657    
     95900   270.54256      25923.774      1.2113247    
     96000   276.34114      25914.69       1.2117493    
     96100   275.48172      26065.28       1.2047485    
     96200   273.32325      26026.965      1.206522     
     96300   268.4515       25887.305      1.2130312    
     96400   277.16347      25754.584      1.2192822    
     96500   275.27334      25928.706      1.2110943    
     96600   270.1275       26113.679      1.2025156    
     96700   268.9555       25962.491      1.2095183    
     96800   268.91658      26066.613      1.2046869    
     96900   269.98026      25945.414      1.2103144    
     97000   266.37884      26028.568      1.2064478    
     97100   271.79512      25999.755      1.2077848    
     97200   277.23889      25919.334      1.2115322    
     97300   271.23891      25834.805      1.2154962    
     97400   268.86601      25784.562      1.2178647    
     97500   275.10358      25943.962      1.2103821    
     97600   275.58014      26014.25       1.2071118    
     97700   275.78407      26010.103      1.2073042    
     97800   279.96413      26022.493      1.2067294    
     97900   273.1467       26031.175      1.2063269    
     98000   282.89285      25996.441      1.2079387    
     98100   275.00912      26047.326      1.2055789    
     98200   268.68016      26083.221      1.2039198    
     98300   276.29332      25929.901      1.2110384    
     98400   274.65732      26090.294      1.2035935    
     98500   279.51482      26101.852      1.2030605    
     98600   272.13665      25934.311      1.2108325    
     98700   276.70236      26107.27       1.2028108    
     98800   275.0823       25973.689      1.2089968    
     98900   270.26996      25844.989      1.2150173    
     99000   278.98179      25930.894      1.2109921    
     99100   270.71974      26100.214      1.203136     
     99200   281.08404      25856.667      1.2144685    
     99300   271.91644      26058.626      1.2050561    
     99400   278.03542      25915.908      1.2116923    
     99500   270.32998      25634.283      1.2250043    
     99600   276.43958      25782.764      1.2179496    
     99700   268.77912      25833.07       1.2155778    
     99800   274.98241      25815.125      1.2164228    
     99900   274.0279       25993.275      1.2080859    
    100000   271.09435      25885.202      1.2131297    
    100100   269.98027      25956.753      1.2097856    
    100200   271.80992      25884.686      1.2131539    
    100300   274.34646      25973.325      1.2090138    
    100400   274.03099      25779.316      1.2181125    
    100500   269.01544      25833.95       1.2155364    
    100600   270.47381      25984.709      1.2084841    
    100700   272.94375      25859.022      1.2143579    
    100800   268.32877      25871.537      1.2137705    
    100900   272.59754      25753.395      1.2193386    
    101000   271.37397      25832.616      1.2155992    
    101100   272.835        25828.56       1.2157901    
    101200   267.32232      25798.189      1.2172214    
    101300   271.19499      25909.683      1.2119835    
    101400   274.9043       26065.329      1.2047463    
    101500   271.10323      26036.267      1.206091     
    101600   269.66728      25897.754      1.2125417    
    101700   271.10444      25917.284      1.211628     
    101800   276.11621      25978.716      1.2087629    
    101900   267.43659      26122.206      1.2021231    
    102000   272.14628      25986.649      1.2083939    
    102100   269.54817      25939.946      1.2105695    
    102200   271.32775      26159.381      1.2004148    
    102300   272.24534      26119.825      1.2022327    
    102400   277.65496      25789.213      1.2176451    
    102500   271.36452      25758.348      1.2191041    
    102600   276.77693      26057.747      1.2050968    
    102700   274.03533      25899.859      1.2124432    
    102800   273.65997      25940.19       1.2105581    
    102900   274.02062      25815.277      1.2164157    
    103000   268.7859       25993.568      1.2080722    
    103100   273.26258      25843.175      1.2151026    
    103200   274.32619      25790.684      1.2175756    
    103300   279.56801      25766.257      1.2187299    
    103400   270.8945       25855.888      1.2145051    
    103500   272.27644      25970.186      1.2091599    
    103600   270.49174      25965.823      1.2093631    
    103700   271.67839      25809.349      1.216695     
    103800   270.56134      25832.181      1.2156197    
    103900   272.62229      25880.493      1.2133505    
    104000   264.8994       25817.315      1.2163196    
    104100   272.15172      25795.154      1.2173646    
    104200   270.31466      25681.967      1.2227298    
    104300   271.76558      25868.915      1.2138935    
    104400   265.81592      25767.555      1.2186685    
    104500   269.67682      25797.651      1.2172468    
    104600   274.01531      25745.612      1.2197071    
    104700   270.97511      25639.08       1.2247751    
    104800   267.44267      25895.417      1.2126511    
    104900   269.78694      25810.665      1.216633     
    105000   268.92097      25620.414      1.2256675    
    105100   272.74228      25770.097      1.2185483    
    105200   273.54549      25983.59       1.2085361    
    105300   266.46468      25850.451      1.2147605    
    105400   273.09063      25798.637      1.2172002    
    105500   271.21044      25749.493      1.2195233    
    105600   271.83856      25886.4        1.2130735    
    105700   271.46748      25782.284      1.2179723    
    105800   272.79137      25713.518      1.2212295    
    105900   274.20431      26161.302      1.2003266    
    106000   269.26779      26098.587      1.203211     
    106100   273.87192      25990.91       1.2081958    
    106200   272.16778      25815.278      1.2164156    
    106300   270.07818      25847.932      1.2148789    
    106400   279.07018      25715.06       1.2211563    
    106500   275.43565      25764.622      1.2188072    
    106600   277.16271      25974.593      1.2089548    
    106700   279.27675      26040.297      1.2059043    
    106800   270.86576      26029.998      1.2063815    
    106900   273.58233      26022.909      1.2067101    
    107000   277.09244      25847.437      1.2149022    
    107100   281.01332      25747.424      1.2196213    
    107200   280.27556      25624.515      1.2254713    
    107300   275.02185      25836.662      1.2154088    
    107400   274.88946      26054.783      1.2052339    
    107500   272.97232      25972.72       1.2090419    
    107600   276.81941      25951.84       1.2100147    
    107700   276.54993      25900.716      1.2124031    
    107800   275.09239      25731.65       1.220369     
    107900   278.86454      25885.128      1.2131332    
    108000   272.76308      25919.441      1.2115272    
    108100   276.45801      26027.037      1.2065187    
    108200   277.85442      26030.302      1.2063674    
    108300   273.87203      26083.146      1.2039233    
    108400   275.37118      26043.353      1.2057628    
    108500   273.59689      25968.471      1.2092398    
    108600   273.04669      25951.617      1.2100251    
    108700   276.31354      25902.506      1.2123193    
    108800   272.70248      25867.844      1.2139437    
    108900   272.29808      26003.798      1.207597     
    109000   270.32251      25885.663      1.2131081    
    109100   267.42276      25780.708      1.2180468    
    109200   278.38729      25848.194      1.2148666    
    109300   269.64492      25974.783      1.2089459    
    109400   267.15506      25897.135      1.2125707    
    109500   272.40044      25923.493      1.2113378    
    109600   267.86665      25796.206      1.2173149    
    109700   269.1147       25980.947      1.2086591    
    109800   263.9736       25994.558      1.2080262    
    109900   270.92938      25986.041      1.2084221    
    110000   273.4011       26059.799      1.2050019    
    110100   267.34093      26035.166      1.206142     
    110200   262.01666      25793.602      1.2174378    
    110300   272.11728      25741.896      1.2198832    
    110400   266.18622      26021.412      1.2067795    
    110500   275.93036      25976.122      1.2088836    
    110600   270.82881      25894.072      1.2127141    
    110700   270.11185      25932.078      1.2109368    
    110800   272.66058      26166.702      1.2000789    
    110900   269.68971      26049.032      1.2055       
    111000   269.49619      25886.573      1.2130655    
    111100   273.58677      25794.712      1.2173855    
    111200   277.03823      25732.856      1.2203118    
    111300   274.90477      25698.04       1.2219651    
    111400   274.67915      25717.53       1.221039     
    111500   275.6116       25796.682      1.2172925    
    111600   270.28399      25863.838      1.2141318    
    111700   270.6572       25799.356      1.2171663    
    111800   277.18931      25900.967      1.2123913    
    111900   280.08528      26170.642      1.1998983    
    112000   268.87839      26104.783      1.2029254    
    112100   276.27722      25999.717      1.2077865    
    112200   272.96157      25974.273      1.2089696    
    112300   275.12953      26060.132      1.2049865    
    112400   275.85746      25981.762      1.2086212    
    112500   272.92695      25888.614      1.2129698    
    112600   276.42026      25670.798      1.2232618    
    112700   272.9808       25681.81       1.2227373    
    112800   271.93942      25650.735      1.2242186    
    112900   275.8387       25749.612      1.2195177    
    113000   276.15606      26091.343      1.2035451    
    113100   273.52315      26054.864      1.2052301    
    113200   275.74564      26018.149      1.2069309    
    113300   279.52853      25904.719      1.2122157    
    113400   278.12665      25839.649      1.2152683    
    113500   278.77253      25739.983      1.2199739    
    113600   278.53125      25559.087      1.2286084    
    113700   273.14157      25906.984      1.2121097    
    113800   271.23767      25881.444      1.2133059    
    113900   272.57311      26057.879      1.2050907    
    114000   274.19395      26090.461      1.2035858    
    114100   271.60094      26159.393      1.2004142    
    114200   271.99978      26123.628      1.2020577    
    114300   268.87773      26018.979      1.2068924    
    114400   269.58297      26031.323      1.2063201    
    114500   273.11015      26155.964      1.2005716    
    114600   275.17055      25918.903      1.2115523    
    114700   271.33985      25934.918      1.2108042    
    114800   276.6173       25912.96       1.2118302    
    114900   271.56329      26092.409      1.2034959    
    115000   272.49091      26061.352      1.2049301    
    115100   267.81896      25949.461      1.2101256    
    115200   272.88002      26106.935      1.2028263    
    115300   268.20198      26055.186      1.2052152    
    115400   269.44089      26073.104      1.204387     
    115500   270.36123      25946.655      1.2102565    
    115600   264.9364       26039.471      1.2059426    
    115700   263.77068      26039.578      1.2059377    
    115800   267.29976      26101.071      1.2030965    
    115900   270.79543      25978.256      1.2087843    
    116000   266.13895      25998.39       1.2078482    
    116100   262.80652      25779.701      1.2180943    
    116200   264.51767      25820.815      1.2161548    
    116300   263.71588      26116.162      1.2024013    
    116400   262.27455      26036.287      1.2060901    
    116500   264.22754      26020.976      1.2067998    
    116600   268.88752      25921.602      1.2114262    
    116700   265.96618      26058.545      1.2050599    
    116800   269.37943      25970.343      1.2091526    
    116900   270.033        26020.03       1.2068436    
    117000   264.56073      25825.497      1.2159343    
    117100   267.56138      25895.344      1.2126546    
    117200   264.61473      25849.649      1.2147982    
    117300   264.56093      25994.711      1.2080191    
    117400   271.16645      25783.313      1.2179237    
    117500   268.78974      25902.259      1.2123308    
    117600   269.45461      25848.179      1.2148673    
    117700   269.50862      25844.193      1.2150547    
    117800   273.1138       25775.162      1.2183088    
    117900   271.18974      25877.83       1.2134753    
    118000   268.50062      26149.503      1.2008682    
    118100   271.52513      26145.502      1.201052     
    118200   271.83325      26177.346      1.1995909    
    118300   277.65512      25950.931      1.2100571    
    118400   273.29619      25953.18       1.2099522    
    118500   268.05167      25948.779      1.2101574    
    118600   272.2991       26003.212      1.2076242    
    118700   275.06992      25911.509      1.211898     
    118800   276.72018      25962.945      1.2094971    
    118900   278.62591      25873.529      1.213677     
    119000   275.50165      26141.497      1.201236     
    119100   272.10916      26024.011      1.206659     
    119200   274.57199      25990.115      1.2082327    
    119300   269.41333      26001.327      1.2077117    
    119400   276.34828      25909.63       1.2119859    
    119500   271.07873      25929.865      1.2110401    
    119600   276.06443      25991.864      1.2081514    
    119700   278.30635      25764.537      1.2188112    
    119800   277.19956      25850.435      1.2147613    
    119900   279.00363      25842.313      1.2151431    
    120000   273.89303      25861.055      1.2142624    
    120100   273.66969      26013.682      1.2071381    
    120200   272.02973      25823.728      1.2160176    
    120300   273.80336      25874.011      1.2136544    
    120400   274.67622      25744.68       1.2197513    
    120500   273.02018      25747.443      1.2196204    
    120600   273.89991      26063.532      1.2048293    
    120700   273.06922      26273.457      1.1952027    
    120800   270.40424      26261.882      1.1957295    
    120900   269.33835      26100.486      1.2031235    
    121000   273.30951      26086.565      1.2037655    
    121100   272.25757      25897.41       1.2125578    
    121200   272.17541      25680.56       1.2227968    
    121300   269.84505      25875.872      1.2135671    
    121400   270.9651       25873.968      1.2136564    
    121500   270.80533      25948.267      1.2101813    
    121600   271.1248       25971.875      1.2090813    
    121700   267.73696      26009.712      1.2073224    
    121800   267.34054      25715.591      1.2211311    
    121900   272.80458      25867.194      1.2139742    
    122000   264.70823      25799.383      1.2171651    
    122100   267.36859      25745.012      1.2197356    
    122200   268.73235      26044.281      1.2057199    
    122300   269.50011      25929.196      1.2110714    
    122400   268.6857       25918.385      1.2115766    
    122500   271.02112      25609.669      1.2261817    
    122600   270.60318      25562.556      1.2284416    
    122700   270.72923      25596.186      1.2268276    
    122800   267.65694      25839.874      1.2152577    
    122900   268.23665      25773.846      1.218371     
    123000   273.12733      25629.913      1.2252132    
    123100   267.0445       25668.359      1.2233781    
    123200   271.94569      25912.486      1.2118523    
    123300   268.58019      25837.424      1.215373     
    123400   266.5772       25653.902      1.2240675    
    123500   272.39388      25750.776      1.2194626    
    123600   270.31151      25933.309      1.2108793    
    123700   272.9596       25901.749      1.2123547    
    123800   274.32049      25623.105      1.2255387    
    123900   272.17383      25523.593      1.2303169    
    124000   273.4603       25808.272      1.2167458    
    124100   276.77832      25795.486      1.2173489    
    124200   274.10194      25674.491      1.2230859    
    124300   272.88249      25730.771      1.2204107    
    124400   272.40152      25908.73       1.2120281    
    124500   279.1559       25844.274      1.2150509    
    124600   274.25229      25910.357      1.211952     
    124700   278.67094      25634.772      1.224981     
    124800   273.38774      25737.635      1.2200852    
    124900   277.84124      25716.197      1.2211023    
    125000   281.75099      25720.001      1.2209217    
    125100   274.69138      25910.477      1.2119463    
    125200   273.59431      26031.386      1.2063172    
    125300   272.7172       25877.853      1.2134742    
    125400   276.37732      25953.088      1.2099565    
    125500   273.47116      25883.994      1.2131863    
    125600   275.43174      25925.677      1.2112358    
    125700   274.91628      25930.873      1.210993     
    125800   270.93647      25954.517      1.2098899    
    125900   271.64614      25868.573      1.2139096    
    126000   276.41625      25822.894      1.2160568    
    126100   274.13173      26049.548      1.2054761    
    126200   268.03869      25972.479      1.2090531    
    126300   274.17317      25772.863      1.2184175    
    126400   269.82701      25730.269      1.2204345    
    126500   272.03151      25956.539      1.2097956    
    126600   277.77558      25883.054      1.2132304    
    126700   271.98082      25812.901      1.2165277    
    126800   277.93591      25749.235      1.2195356    
    126900   271.41688      25903.193      1.2122871    
    127000   274.06142      25835.136      1.2154806    
    127100   276.00796      25816.776      1.216345     
    127200   267.96743      25846.833      1.2149305    
    127300   273.24846      25610.361      1.2261486    
    127400   271.43861      25743.217      1.2198206    
    127500   269.97163      25833.159      1.2155737    
    127600   264.52954      25903.879      1.212255     
    127700   270.30978      25914.662      1.2117506    
    127800   269.72449      25813.362      1.2165059    
    127900   271.26601      25790.991      1.2175611    
    128000   265.184        25658.283      1.2238585    
    128100   267.89637      25872.31       1.2137342    
    128200   268.87282      26047.297      1.2055803    
    128300   271.78798      25880.995      1.2133269    
    128400   264.11956      25802.573      1.2170146    
    128500   269.91743      25678.305      1.2229042    
    128600   273.10648      25805.276      1.2168871    
    128700   272.58801      25917.248      1.2116297    
    128800   267.82876      25924.007      1.2113138    
    128900   273.31167      25852.867      1.214647     
    129000   269.01748      25812.891      1.2165281    
    129100   268.88692      25774.032      1.2183622    
    129200   275.41068      25768.755      1.2186118    
    129300   267.30671      25591.004      1.227076     
    129400   272.84799      25658.604      1.2238432    
    129500   271.28017      25777.737      1.2181871    
    129600   268.211        25819.645      1.2162099    
    129700   269.98812      25811.354      1.2166006    
    129800   275.51982      25804.482      1.2169245    
    129900   272.96785      25815.861      1.2163881    
    130000   275.01858      25633.236      1.2250544    
    130100   272.40252      25673.361      1.2231397    
    130200   275.15302      25680.307      1.2228089    
    130300   276.96206      25561.543      1.2284903    
    130400   275.858        25539.106      1.2295696    
    130500   276.91106      25696.614      1.2220329    
    130600   272.80303      25797.372      1.2172599    
    130700   274.39476      25685.846      1.2225452    
    130800   279.98241      25673.608      1.223128     
    130900   274.05052      25733.604      1.2202763    
    131000   275.50793      25641.674      1.2246512    
    131100   277.0674       25876.335      1.2135454    
    131200   274.6051       26025.492      1.2065903    
    131300   273.20539      25969.313      1.2092006    
    131400   276.4385       25801.595      1.2170607    
    131500   274.40523      25883.114      1.2132275    
    131600   274.62215      25943.835      1.210388     
    131700   278.99588      25824.235      1.2159937    
    131800   276.262        25879.435      1.2134       
    131900   277.73276      25728.057      1.2205394    
    132000   275.61517      25672.046      1.2232024    
    132100   279.98627      25647.074      1.2243934    
    132200   272.45822      25727.877      1.2205479    
    132300   271.54553      25860.522      1.2142874    
    132400   273.60275      25836.204      1.2154304    
    132500   270.23165      25731.742      1.2203646    
    132600   272.97777      25841.705      1.2151716    
    132700   271.24796      25934.97       1.2108017    
    132800   274.4761       25933.683      1.2108619    
    132900   267.55368      25677.792      1.2229286    
    133000   271.89903      25779.95       1.2180826    
    133100   271.35757      25859.579      1.2143317    
    133200   270.53362      25715.61       1.2211302    
    133300   270.60281      25834.499      1.2155106    
    133400   267.9964       25968.685      1.2092298    
    133500   271.47073      25940.565      1.2105406    
    133600   264.42076      25962.972      1.2094959    
    133700   273.39308      25932.681      1.2109086    
    133800   272.48804      25930.008      1.2110335    
    133900   272.35424      25984.901      1.2084752    
    134000   268.14902      25721.848      1.220834     
    134100   271.19555      25653.728      1.2240758    
    134200   266.73598      25642.922      1.2245916    
    134300   266.07713      25562.949      1.2284227    
    134400   260.42205      25776.424      1.2182492    
    134500   266.87194      25971.051      1.2091196    
    134600   265.47428      25839.796      1.2152614    
    134700   270.93962      25941.097      1.2105158    
    134800   267.93842      25761.882      1.2189368    
    134900   266.76         25764.452      1.2188153    
    135000   271.63013      25831.316      1.2156604    
    135100   269.36003      25762.518      1.2189068    
    135200   269.76403      26012.697      1.2071839    
    135300   271.36571      25733.914      1.2202616    
    135400   265.6855       25868.66       1.2139054    
    135500   269.00715      25812.858      1.2165297    
    135600   276.02324      25832.221      1.2156178    
    135700   268.68202      25832.646      1.2155978    
    135800   274.02552      26080.279      1.2040557    
    135900   279.68254      25766.577      1.2187148    
    136000   278.55915      25664.98       1.2235391    
    136100   276.26015      25905.654      1.212172     
    136200   268.69466      25851.855      1.2146946    
    136300   268.66881      25864.636      1.2140943    
    136400   276.67474      25688.44       1.2224217    
    136500   274.71663      25918.846      1.211555     
    136600   274.99487      25975.741      1.2089013    
    136700   272.7666       25992.857      1.2081053    
[...]
   1167600   342.44083      26390.385      1.1899071    
   1167700   344.96213      26607.23       1.1802096    
   1167800   341.78003      26541.92       1.1831136    
   1167900   349.64122      26413.258      1.1888767    
   1168000   342.19949      26566.831      1.1820042    
   1168100   342.94634      26651.45       1.1782514    
   1168200   343.51025      26944.261      1.1654469    
   1168300   344.88962      26710.787      1.1756339    
   1168400   340.70559      26706.467      1.1758241    
   1168500   348.1723       26520.601      1.1840647    
   1168600   341.62415      26648.205      1.1783948    
   1168700   345.27972      26585.641      1.181168     
   1168800   337.51447      26428.236      1.1882029    
   1168900   338.15335      26647.088      1.1784442    
   1169000   342.53487      26479.948      1.1858825    
   1169100   343.5429       26547.781      1.1828525    
   1169200   345.34551      26499.615      1.1850024    
   1169300   345.7836       26627.956      1.179291     
   1169400   338.19721      26600.081      1.1805267    
   1169500   347.46105      26445.105      1.187445     
   1169600   335.58195      26434.397      1.187926     
   1169700   340.06265      26460.527      1.1867529    
   1169800   338.98851      26412.288      1.1889204    
   1169900   343.95734      26307.775      1.1936436    
   1170000   349.42008      26479.311      1.185911     
   1170100   344.98485      26222.82       1.1975107    
   1170200   334.76134      26251.741      1.1961914    
   1170300   336.68149      26291.28       1.1943925    
   1170400   342.66874      26240.498      1.196704     
   1170500   346.41896      26234.578      1.196974     
   1170600   347.8695       26087.356      1.203729     
   1170700   347.01665      26347.509      1.1918435    
   1170800   339.43859      26331.253      1.1925793    
   1170900   339.65679      26341.322      1.1921234    
   1171000   332.77571      26433.405      1.1879706    
   1171100   342.75225      26222.689      1.1975167    
   1171200   346.55055      26468.456      1.1863974    
   1171300   338.52238      26374.789      1.1906108    
   1171400   338.68064      26430.222      1.1881137    
   1171500   333.78421      26282.977      1.1947698    
   1171600   333.97923      26492.99       1.1852987    
   1171700   343.08616      26551.342      1.1826938    
   1171800   345.51388      26307.862      1.1936396    
   1171900   347.0702       26499.171      1.1850223    
   1172000   349.7619       26525.416      1.1838498    
   1172100   341.24257      26429.641      1.1881398    
   1172200   336.39024      26459.931      1.1867796    
   1172300   344.16467      26451.049      1.1871782    
   1172400   343.62         26452.384      1.1871182    
   1172500   346.5636       26384.043      1.1901932    
   1172600   339.38136      26373.631      1.190663     
   1172700   338.32955      26582.921      1.1812888    
   1172800   338.81473      26358.461      1.1913483    
   1172900   344.35299      26479.846      1.1858871    
   1173000   347.22149      26402.409      1.1893652    
   1173100   336.20245      26346.349      1.191896     
   1173200   335.23823      26405.307      1.1892347    
   1173300   342.08861      26252.574      1.1961535    
   1173400   342.9737       26268.111      1.195446     
   1173500   348.74871      26142.519      1.201189     
   1173600   347.0123       26096.751      1.2032956    
   1173700   337.75197      26199.327      1.1985845    
   1173800   336.54429      26526.776      1.183789     
   1173900   348.37847      26459.758      1.1867874    
   1174000   349.6902       26434.672      1.1879136    
   1174100   344.65013      26552.898      1.1826245    
   1174200   336.9612       26653.362      1.1781668    
   1174300   337.41724      26462.829      1.1866497    
   1174400   337.00519      26370.276      1.1908145    
   1174500   345.3228       26474.302      1.1861354    
   1174600   357.68818      26385.28       1.1901374    
   1174700   347.31872      26657.06       1.1780034    
   1174800   340.40093      26626.43       1.1793585    
   1174900   342.32561      26540.719      1.1831671    
   1175000   346.80176      26203.924      1.1983742    
   1175100   352.51259      26257.946      1.1959087    
   1175200   346.00015      26469.386      1.1863557    
   1175300   342.62971      26582.446      1.1813099    
   1175400   342.78148      26882.635      1.1681187    
   1175500   340.57598      26756.228      1.1736373    
   1175600   346.86176      26636.19       1.1789264    
   1175700   337.7568       26539.446      1.1832239    
   1175800   339.779        26680.165      1.1769832    
   1175900   346.56546      26641.714      1.178682     
   1176000   343.56309      26633.455      1.1790475    
   1176100   346.47159      26604.534      1.1803292    
   1176200   340.80057      26496.421      1.1851453    
   1176300   340.89168      26376.694      1.1905248    
   1176400   348.73495      26582.57       1.1813044    
   1176500   344.62009      26520.947      1.1840492    
   1176600   345.59671      26610.464      1.1800662    
   1176700   344.37392      26521.825      1.18401      
   1176800   340.37585      26662.387      1.177768     
   1176900   344.69081      26777.024      1.1727258    
   1177000   343.02582      26768.488      1.1730998    
   1177100   343.08363      26581.67       1.1813444    
   1177200   339.41759      26557.575      1.1824162    
   1177300   339.36925      26422.423      1.1884643    
   1177400   352.46031      26448.861      1.1872764    
   1177500   341.91345      26391.16       1.1898722    
   1177600   345.89232      26115.367      1.2024379    
   1177700   338.81374      26361.502      1.1912109    
   1177800   334.04662      26427.854      1.1882201    
   1177900   339.34405      26383.643      1.1902112    
   1178000   354.36496      26316.711      1.1932383    
   1178100   348.46777      26468.913      1.1863769    
   1178200   336.2794       26503.555      1.1848262    
   1178300   345.75152      26406.726      1.1891708    
   1178400   340.51164      26261.545      1.1957448    
   1178500   346.65777      26633.469      1.1790469    
   1178600   349.85649      26370.549      1.1908022    
   1178700   351.62385      26322.977      1.1929543    
   1178800   347.62541      26496.069      1.185161     
   1178900   339.31873      26356.394      1.1914417    
   1179000   343.68527      26289.62       1.1944679    
   1179100   338.38468      26397.167      1.1896014    
   1179200   345.70115      26372.738      1.1907033    
   1179300   346.31387      26609.69       1.1801005    
   1179400   352.69108      26576.643      1.1815679    
   1179500   347.3023       26663.192      1.1777325    
   1179600   337.5537       26728.664      1.1748476    
   1179700   336.3589       26799.318      1.1717502    
   1179800   347.68898      26727.631      1.174893     
   1179900   347.5116       26485.634      1.1856279    
   1180000   345.29938      26504.243      1.1847955    
   1180100   334.79116      26687.192      1.1766733    
   1180200   338.28337      26743.347      1.1742026    
   1180300   346.44828      26506.714      1.184685     
   1180400   359.22233      26586.203      1.181143     
   1180500   347.67706      26638.797      1.178811     
   1180600   346.55857      26456.319      1.1869417    
   1180700   344.90367      26655.79       1.1780595    
   1180800   344.30827      26460.187      1.1867682    
   1180900   344.98995      26280.171      1.1948974    
   1181000   349.42666      26266.428      1.1955226    
   1181100   346.85286      26488.398      1.1855042    
   1181200   342.345        26347.294      1.1918532    
   1181300   333.65294      26493.331      1.1852835    
   1181400   342.96191      26654.656      1.1781096    
   1181500   345.97515      26594.682      1.1807664    
   1181600   343.52716      26709.694      1.175682     
   1181700   343.19071      26725.916      1.1749684    
   1181800   341.07709      26483.199      1.1857369    
   1181900   340.74752      26488.602      1.1854951    
   1182000   346.37995      26611.684      1.180012     
   1182100   346.38385      26681.094      1.1769423    
   1182200   334.20082      26694.374      1.1763568    
   1182300   334.22555      26498.983      1.1850306    
   1182400   339.05731      26790.335      1.1721431    
   1182500   336.77811      26663.828      1.1777044    
   1182600   344.50396      26509.888      1.1845432    
   1182700   345.32522      26437.483      1.1877873    
   1182800   342.25292      26481.2        1.1858264    
   1182900   336.76664      26452.921      1.1870941    
   1183000   340.52308      26562.658      1.18219      
   1183100   344.0406       26661.235      1.1778189    
   1183200   344.09217      26632.541      1.1790879    
   1183300   346.02444      26462.467      1.1866659    
   1183400   356.31758      26390.156      1.1899174    
   1183500   350.23835      26486.012      1.185611     
   1183600   339.45417      26587.06       1.1811049    
   1183700   340.14025      26574.087      1.1816815    
   1183800   348.60304      26398.848      1.1895256    
   1183900   346.05777      26434.546      1.1879193    
   1184000   346.94934      26645.185      1.1785284    
   1184100   350.38431      26679.345      1.1770194    
   1184200   349.12575      26397.546      1.1895843    
   1184300   345.13427      26496.791      1.1851287    
   1184400   339.95646      26449.928      1.1872284    
   1184500   345.80868      26510.945      1.184496     
   1184600   345.11016      26557.109      1.1824369    
   1184700   344.78671      26747.67       1.1740128    
   1184800   347.14371      26577.269      1.18154      
   1184900   345.40952      26692.126      1.1764558    
   1185000   346.10962      26435.275      1.1878865    
   1185100   333.01534      26560.923      1.1822672    
   1185200   330.96759      26249.653      1.1962866    
   1185300   342.54883      26576.528      1.181573     
   1185400   345.12493      26699.018      1.1761521    
   1185500   348.43141      26480.461      1.1858596    
   1185600   341.09978      26467.472      1.1864415    
   1185700   335.55905      26352.495      1.191618     
   1185800   333.64116      26316.678      1.1932398    
   1185900   347.11504      26435.216      1.1878892    
   1186000   350.7027       26496.858      1.1851257    
   1186100   342.6615       26752.84       1.1737859    
   1186200   344.91921      26578.291      1.1814946    
   1186300   336.1224       26526.468      1.1838028    
   1186400   349.12756      26513.46       1.1843836    
   1186500   346.42048      26428.245      1.1882025    
   1186600   343.03418      26476.162      1.1860521    
   1186700   347.42616      26708.828      1.1757202    
   1186800   345.9947       26562.473      1.1821982    
   1186900   356.04979      26557.072      1.1824386    
   1187000   348.23399      26715.504      1.1754263    
   1187100   347.002        26781.277      1.1725396    
   1187200   352.81304      26697.061      1.1762384    
   1187300   343.40926      26539.904      1.1832035    
   1187400   346.3185       26570.403      1.1818454    
   1187500   341.50339      26738.669      1.174408     
   1187600   351.61039      26633.193      1.1790591    
   1187700   340.81872      26927.418      1.166176     
   1187800   333.311        26784.199      1.1724117    
   1187900   340.72682      26602.02       1.1804407    
   1188000   342.26495      26846.861      1.1696752    
   1188100   344.16584      26773.104      1.1728975    
   1188200   348.80022      26755.582      1.1736656    
   1188300   358.45397      26689.217      1.1765841    
   1188400   346.74124      26618.895      1.1796924    
   1188500   343.45379      26482.343      1.1857753    
   1188600   343.83906      26396.968      1.1896104    
   1188700   335.07171      26465.278      1.1865399    
   1188800   340.85237      26518.034      1.1841793    
   1188900   349.14702      26430.6        1.1880966    
   1189000   349.46149      26291.678      1.1943744    
   1189100   333.73441      26446.835      1.1873673    
   1189200   344.27853      26473.101      1.1861892    
   1189300   343.37134      26578.007      1.1815072    
   1189400   346.24243      26560.036      1.1823066    
   1189500   362.01381      26684.832      1.1767774    
   1189600   352.97836      26801.164      1.1716695    
   1189700   346.08369      26668.907      1.1774801    
   1189800   344.21273      26571.829      1.1817819    
   1189900   342.02093      26599.569      1.1805495    
   1190000   336.63329      26806.526      1.1714352    
   1190100   350.78115      26624.486      1.1794446    
   1190200   350.7784       26458.49       1.1868443    
   1190300   340.2144       26758.904      1.1735199    
   1190400   343.70801      26682.301      1.176889     
   1190500   337.06545      26676.791      1.1771321    
   1190600   348.0645       26628.629      1.1792611    
   1190700   340.78191      26529.273      1.1836776    
   1190800   342.1692       26615.781      1.1798304    
   1190900   342.63511      26669.371      1.1774596    
   1191000   340.60165      26837.075      1.1701017    
   1191100   349.72795      26919.846      1.166504     
   1191200   348.41623      26717.901      1.1753209    
   1191300   342.80159      26556.89       1.1824467    
   1191400   340.04838      26418.8        1.1886273    
   1191500   343.42664      26551.487      1.1826873    
   1191600   344.55409      26568.732      1.1819197    
   1191700   347.79919      26770.402      1.1730159    
   1191800   345.31301      26503.367      1.1848346    
   1191900   342.09858      26673.527      1.1772762    
   1192000   332.36707      26932.664      1.1659488    
   1192100   345.07264      26940.013      1.1656307    
   1192200   345.0284       26481.431      1.1858161    
   1192300   350.0787       26623.9        1.1794706    
   1192400   347.32488      26611.642      1.1800139    
   1192500   339.96869      26597.426      1.1806446    
   1192600   340.99675      26621.563      1.1795742    
   1192700   338.64849      26455.545      1.1869764    
   1192800   334.7687       26695.234      1.1763189    
   1192900   348.91093      26443.221      1.1875296    
   1193000   348.48499      26503.36       1.184835     
   1193100   342.37241      26608.588      1.1801493    
   1193200   342.3192       26547.087      1.1828834    
   1193300   334.87305      26514.45       1.1843394    
   1193400   348.17332      26321.247      1.1930327    
   1193500   345.96532      26520.19       1.184083     
   1193600   343.84872      26622.824      1.1795183    
   1193700   333.41066      26428.851      1.1881753    
   1193800   333.33619      26534.271      1.1834547    
   1193900   345.43234      26590.631      1.1809463    
   1194000   343.16199      26827.505      1.1705191    
   1194100   344.29145      26444.549      1.1874699    
   1194200   344.02931      26434.157      1.1879368    
   1194300   348.78913      26557.751      1.1824084    
   1194400   340.78896      26481.271      1.1858233    
   1194500   341.59796      26411.086      1.1889745    
   1194600   347.00546      26696.52       1.1762622    
   1194700   342.63714      27016.953      1.1623112    
   1194800   342.53835      27109.629      1.1583378    
   1194900   337.50501      26711.625      1.175597     
   1195000   338.70526      26685.184      1.1767619    
   1195100   342.25335      26739.073      1.1743903    
   1195200   339.00039      26686.201      1.176717     
   1195300   345.52232      26796.577      1.1718701    
   1195400   338.72825      26925.936      1.1662402    
   1195500   343.3811       26838.214      1.170052     
   1195600   345.30032      26931.759      1.165988     
   1195700   351.12637      26872.5        1.1685592    
   1195800   344.87686      26495.483      1.1851872    
   1195900   343.87196      26461.353      1.1867159    
   1196000   340.00648      26546.334      1.1829169    
   1196100   342.53469      26865.001      1.1688854    
   1196200   351.17586      26804.55       1.1715215    
   1196300   350.77329      26919.939      1.1665       
   1196400   347.77219      26742.95       1.17422      
   1196500   341.24193      26510.545      1.1845138    
   1196600   343.41224      26757.149      1.1735969    
   1196700   349.05726      26739.409      1.1743755    
   1196800   342.64361      26792.686      1.1720403    
   1196900   347.14093      26834.674      1.1702064    
   1197000   343.03425      26837.321      1.170091     
   1197100   342.84711      26781.453      1.1725319    
   1197200   336.63771      26817.884      1.1709391    
   1197300   341.87422      26598.441      1.1805996    
   1197400   344.86693      26540.917      1.1831583    
   1197500   347.57486      26611.518      1.1800194    
   1197600   344.36456      26837.004      1.1701048    
   1197700   340.31674      26933.174      1.1659267    
   1197800   338.63714      26931.328      1.1660066    
   1197900   340.47996      26524.91       1.1838723    
   1198000   341.90156      26529.779      1.1836551    
   1198100   347.35245      26441.213      1.1876198    
   1198200   341.31701      26375.34       1.1905859    
   1198300   341.69994      26376.412      1.1905375    
   1198400   331.76561      26324.954      1.1928647    
   1198500   336.06069      26475.46       1.1860835    
   1198600   341.08968      26530.408      1.183627     
   1198700   339.74219      26582.051      1.1813275    
   1198800   342.12591      26618.211      1.1797227    
   1198900   350.60701      26438.646      1.1877351    
   1199000   346.69684      26331.281      1.192578     
   1199100   338.1934       26613.774      1.1799194    
   1199200   336.65355      26516.768      1.1842359    
   1199300   343.31978      26668.596      1.1774938    
   1199400   350.82681      26624.693      1.1794355    
   1199500   338.94184      26540.344      1.1831839    
   1199600   341.57787      26660.442      1.177854     
   1199700   341.63002      26968.849      1.1643844    
   1199800   341.03726      26929.574      1.1660826    
   1199900   341.38191      26682.243      1.1768916    
   1200000   349.24027      26688.388      1.1766206    
Loop time of 2271.94 on 1 procs for 150000 steps with 2988 atoms

Performance: 5.704 ns/day, 4.207 hours/ns, 66.023 timesteps/s
99.8% CPU use with 1 MPI tasks x 1 OpenMP threads

MPI task timing breakdown:
Section |  min time  |  avg time  |  max time  |%varavg| %total
---------------------------------------------------------------
Pair    | 1903.2     | 1903.2     | 1903.2     |   0.0 | 83.77
Bond    | 58.911     | 58.911     | 58.911     |   0.0 |  2.59
Neigh   | 278.99     | 278.99     | 278.99     |   0.0 | 12.28
Comm    | 9.7309     | 9.7309     | 9.7309     |   0.0 |  0.43
Output  | 0.70109    | 0.70109    | 0.70109    |   0.0 |  0.03
Modify  | 17.789     | 17.789     | 17.789     |   0.0 |  0.78
Other   |            | 2.67       |            |       |  0.12

Nlocal:           2988 ave        2988 max        2988 min
Histogram: 1 0 0 0 0 0 0 0 0 0
Nghost:          14379 ave       14379 max       14379 min
Histogram: 1 0 0 0 0 0 0 0 0 0
Neighs:    1.18966e+06 ave 1.18966e+06 max 1.18966e+06 min
Histogram: 1 0 0 0 0 0 0 0 0 0

Total # of neighbors = 1189661
Ave neighs/atom = 398.14625
Ave special neighs/atom = 12.156627
Neighbor list builds = 7725
Dangerous builds = 0
unfix			1
#final
write_data		thermal_expansion_before_glass_transition.data
System init for write_data ...
Generated 153 of 153 mixed pair_coeff terms from geometric mixing rule

#parameter
neighbor		2.0 bin
Total wall time: 5:09:27
