LAMMPS data file via write_data, version 23 Jun 2022, timestep = 1200000

2988 atoms
18 atom types
3044 bonds
16 bond types
5800 angles
31 angle types

30.111429412736285 59.99557058726494 xlo xhi
27.19692941273628 57.08107058726494 ylo yhi
30.08043141273629 59.964572587264946 zlo zhi

Masses

1 1.00794
2 1.00794
3 12.0107
4 12.0107
5 1.00794
6 1.00794
7 1.00794
8 1.00794
9 15.9994
10 12.0107
11 12.0107
12 1.00794
13 15.9994
14 15.9994
15 12.0107
16 12.0107
17 1.00794
18 15.9994

Pair Coeffs # lj/cut

1 0.038 2.44997
2 0.038 2.44997
3 0.039 3.87541
4 0.039 3.87541
5 0.038 2.44997
6 0.038 2.44997
7 0 0
8 0.038 2.44997
9 0.228 2.85978
10 0.148 3.61705
11 0.039 3.87541
12 0.038 2.44997
13 0.228 2.85978
14 0.228 2.85978
15 0.148 3.61705
16 0.148 3.61705
17 0 0
18 0.228 2.85978

Bond Coeffs # harmonic

1 340.618 1.105
2 340.618 1.105
3 322.716 1.526
4 340.618 1.105
5 340.618 1.105
6 340.618 1.105
7 384 1.42
8 540.634 0.96
9 283.092 1.52
10 340.618 1.105
11 615.322 1.23
12 322.716 1.526
13 340.618 1.105
14 384 1.42
15 540.634 0.96
16 384 1.42

Angle Coeffs # harmonic

1 39.5 106.4
2 44.4 110
3 39.5 106.4
4 44.4 110
5 39.5 106.4
6 46.6 110.5
7 44.4 110
8 44.4 110
9 70 109.5
10 46.6 110.5
11 44.4 110
12 58.5 106
13 39.5 106.4
14 57 109.5
15 57 109.5
16 46.6 110.5
17 45 109.5
18 50 120
19 68 120
20 46.6 110.5
21 44.4 110
22 55 120
23 39.5 106.4
24 70 109.5
25 57 109.5
26 70 109.5
27 57 109.5
28 80 109.5
29 70 106
30 80 109.5
31 58.5 106

Atoms # full

992 2 3 0 32.814879910035884 29.568627447802662 34.11909449096867 0 0 1
994 2 1 0 33.82383099594296 29.61296388226495 33.63962048085392 0 0 1
986 2 4 0 32.06365361970554 30.86946895696439 33.789449437742086 0 0 1
991 2 8 0 32.8181672576752 29.60089412795113 35.227519310740156 0 0 1
985 2 3 0 32.87934800977446 32.027674828551724 34.390480196588776 0 0 1
987 2 1 0 33.80043778403082 31.750468185431284 34.91187163596808 0 0 1
979 2 4 0 33.41529169940777 32.8236309804401 33.20301183207552 0 0 1
988 2 5 0 31.899460113179813 30.966751573749022 32.69386426205295 0 0 1
978 2 3 0 34.661971254253345 32.39285897106147 32.47359707565657 0 0 1
980 2 1 0 34.94867391271107 31.339688708834842 32.747747179124275 0 0 1
981 2 5 0 32.583762910829925 33.00206411500482 32.46026800423823 0 0 1
984 2 8 0 32.33572482526414 32.72306005574064 35.049110891043156 0 0 1
977 2 8 0 35.6164928978696 32.80581799967744 32.882409032567814 0 0 1
996 2 14 0 30.970767098120938 28.064565494443322 34.511022058756225 0 0 1
993 2 4 0 32.139483678979126 28.27982786014009 33.70525402914542 0 0 1
998 2 8 0 31.71557414076545 29.045010381408677 31.595563902295794 0 0 1
989 2 14 0 30.826238311891018 30.727609839221515 34.38042021376761 0 0 1
999 2 3 0 32.15259152565284 28.15997833990336 32.11524323301922 0 0 1
1003 2 9 0 34.054418211570606 29.555151175140878 31.346957855730018 0 0 1
1004 2 7 0 33.22278307317273 30.058597857632137 31.285085500054226 0 0 1
1000 2 4 0 33.53635176275657 28.203476757519223 31.453350085614154 0 0 1
1768 3 9 0 30.23967136398398 30.94584674298593 36.93551939268326 1 0 0
664 1 5 0 36.45044828239034 29.56405056437829 33.160353936322295 0 0 0
658 1 9 0 35.86174439413921 29.90784735893206 35.29745660617677 0 0 0
659 1 7 0 35.51111454512537 30.535067609582196 35.881258544372805 0 0 0
1769 3 7 0 30.640018783049378 31.40214557604567 36.186833196801274 1 0 0
1760 3 5 0 59.872494946827295 33.17113457170417 34.96916698718389 0 0 0
665 1 9 0 35.96401121887207 27.792080352518212 33.795643155030895 0 0 0
649 1 1 0 38.25209597662952 33.84536512272862 36.0578494728082 0 0 0
1766 3 1 0 59.319051552712295 33.791944029188 37.15850785589474 0 0 0
662 1 4 0 37.00898978654053 28.6719743330891 33.37855456622847 0 0 0
655 1 4 0 37.2384378948001 29.97195806760245 35.54000800372262 0 0 0
1944 3 7 0 38.16572299294337 32.953178690859986 32.83619373987273 0 0 0
654 1 3 0 37.640527349617706 31.40910062042896 35.569459646386115 0 0 0
656 1 1 0 36.687059911791856 31.885544712261776 35.14648327929673 0 0 0
1943 3 9 0 37.87068680420243 33.7482805649339 33.24631384442421 0 0 0
671 1 5 0 36.7384818850222 29.597923087667894 31.016716758761902 0 0 0
657 1 5 0 37.51861483598004 29.492531471802554 36.52730543511385 0 0 0
995 2 5 0 32.9835194459852 27.565646284169244 33.9404240729563 0 0 1
2196 4 5 0 30.62596188015975 57.04607054621364 36.514112812372936 0 0 0
1001 2 1 0 31.649146855319454 27.25353632748225 31.67473769127802 0 0 1
1002 2 5 0 34.28284463285266 27.659071858587417 31.964318555878872 0 0 1
3004 14 16 0 30.143635177467093 56.91350340559033 34.04213627720099 -8 -3 2
436 1 8 0 33.39407323297395 32.26690462506382 37.20945810489904 0 0 0
2035 3 7 0 35.59130571820774 56.49564833452422 37.4930733293714 0 0 0
661 1 3 0 37.94019863988347 29.113203340029536 34.53257900568349 0 0 0
663 1 1 0 38.716761287152416 29.728305594975357 34.06156898311422 0 0 0
648 1 4 0 38.17673043794446 31.874530161391927 36.944819716780195 0 0 0
653 1 8 0 38.421279652690686 31.597936838345372 34.781422195030785 0 0 0
647 1 3 0 38.86486378595765 33.25415026299807 36.74346203002417 0 0 0
672 1 9 0 38.710599987484635 29.844961506301676 31.047521074845616 0 0 0
670 1 1 0 38.856767691870196 27.729958672455076 32.45169925185944 0 0 0
646 1 8 0 39.712781989869995 32.97881649492313 36.1651737327701 0 0 0
668 1 3 0 37.768004722707445 27.99657833940077 32.22967419976002 0 0 0
1933 3 4 0 41.02299955898125 33.367006123203204 32.478972936560965 0 0 0
1935 3 5 0 40.76635485128449 32.37916076326585 32.993002032306535 0 0 0
1691 3 9 0 42.882448247144595 31.51752954593418 35.15004286291972 0 0 0
1692 3 7 0 43.70777268509373 31.94910257117324 34.96871022191121 0 0 0
1928 3 5 0 43.5615491527127 32.268486234322985 32.533116090451536 0 0 0
1926 3 4 0 43.185336585656096 32.20719719159357 31.54758836795607 0 0 0
1697 3 5 0 43.328322332206795 29.440985621254715 34.01474165253975 0 0 0
1688 3 4 0 43.06030890271865 30.529543206848523 36.22530014434461 0 0 0
1932 3 3 0 42.03578636158649 33.209045252790894 31.28670678379317 0 0 0
1690 3 5 0 44.18602323878503 30.444884708086455 36.315149156134645 0 0 0
1936 3 9 0 41.70310617929109 34.1678377536094 33.50934234631839 0 0 0
1939 3 3 0 39.808060763135195 34.14140347187388 31.903274569944305 0 0 0
1687 3 3 0 42.46763584779343 30.955041511775796 37.62908075809803 0 0 0
1694 3 3 0 42.53669205166684 29.13416559225105 35.8743547231319 0 0 0
1693 3 8 0 41.52136349894621 29.26370785090046 35.69604073882216 0 0 0
1695 3 4 0 43.224700011254434 28.539982179928252 34.650791054871654 0 0 0
1698 3 14 0 44.57684680367797 28.045647777306055 35.0120071446928 0 0 0
1696 3 1 0 42.66833681201627 28.437495190357833 36.76991211964189 0 0 0
669 1 4 0 37.63225287287649 28.94212496425573 31.011742549400093 0 0 0
1704 3 5 0 42.62191322883655 28.452865490389115 32.06956731610652 0 0 0
1925 3 3 0 44.31377954569804 32.49854220061533 30.52944164783404 0 0 0
1929 3 9 0 42.74536602541235 30.847694819846442 31.39800456595396 0 0 0
1711 3 5 0 44.414424933748556 28.69176688549264 31.034440303422468 0 0 0
1940 3 4 0 38.909234918664126 34.734175312096504 32.97468274133308 0 0 0
1927 3 1 0 44.46107623795773 33.56691335506544 30.280888481680527 0 0 0
1937 3 7 0 40.91708154228895 34.584809519072024 33.976181370197004 0 0 0
1934 3 1 0 42.453747511297465 34.053287907350686 30.838889632269698 0 0 0
673 1 7 0 39.39386408414911 29.27482410207093 31.52612954906756 0 0 0
1938 3 8 0 39.317237167772326 33.36574157891146 31.266050331427728 0 0 0
1930 3 7 0 41.978614356097715 30.878025898846243 30.804179897955237 0 0 0
1942 3 5 0 39.485320974621 34.8542769826478 33.94457147911449 0 0 0
639 1 8 0 41.237511530415986 34.31617460852136 36.85129246640041 0 0 0
641 1 4 0 39.388515069365 34.015913775999735 37.943844449390795 0 0 0
651 1 9 0 39.11021061607036 30.88480047404126 37.45719414927967 0 0 0
1683 3 5 0 44.432057269575346 31.80812343968639 37.98463668613465 0 0 0
1709 3 4 0 44.923843692913735 28.108568203030607 31.82405809619446 0 0 0
1920 3 1 0 45.709264553216705 33.6965062449558 32.152703685427866 0 0 0
1921 3 5 0 45.43062724012965 31.131306720402655 31.73052667165818 0 0 0
1919 3 4 0 45.632543617241495 31.906152745547125 30.975904960559173 0 0 0
660 1 8 0 38.457660174925984 28.19538592783348 35.00459223340216 0 0 0
1684 3 9 0 42.961881671363045 33.061800290117525 38.48420543789521 0 0 0
1689 3 1 0 41.89821920188276 30.116989625900626 38.164423881823986 0 0 0
1685 3 7 0 43.26609645584186 33.44055485416355 37.62346613651174 0 0 0
1686 3 8 0 41.60998559585615 31.6289592329623 37.43959115227955 0 0 0
1681 3 4 0 43.43915953971329 31.733813385237873 38.51029282774915 0 0 0
652 1 7 0 38.90435806231348 30.57731054776722 38.348469454589335 0 0 0
1712 3 14 0 45.218644404741035 28.921187992290267 32.89663167167734 0 0 0
2917 8 12 0 46.17889682685429 30.076669375847715 35.25836671966188 3 5 8
1918 3 3 0 46.44020065430293 32.97690995101097 31.750109671538397 0 0 0
1914 3 5 0 46.554975963963614 31.587765197255955 33.51384429654924 0 0 0
1912 3 4 0 47.13844482004005 32.320802528322126 32.947064381942354 0 0 0
2915 8 11 0 46.67703904310298 29.170589440767635 34.85463533043546 3 5 8
2918 8 12 0 47.27408660803765 29.629690673434705 34.07828576509308 3 5 8
1718 3 5 0 47.27995672748935 29.639344677583843 31.535409612902424 0 0 0
1907 3 5 0 47.617827858424306 31.968123954833974 35.481643797680334 0 0 0
2916 8 11 0 47.45202431717146 28.4883060186909 35.95137600955804 3 5 8
1911 3 3 0 47.46313963089301 33.414083037925344 33.921822471930575 0 0 0
1905 3 4 0 48.058528159717135 32.9448899527488 35.27923076254003 0 0 0
1915 3 9 0 48.38043637831115 31.783638689390916 32.44568701624431 0 0 0
1908 3 9 0 49.508375323128966 32.88035383546101 35.101996297900364 0 0 0
1910 3 8 0 48.2123609858811 34.2144543580711 33.67002600851494 0 0 0
1723 3 4 0 49.60227257848922 28.929036490844467 59.888628917608806 0 0 -1
1909 3 7 0 49.84365714251622 32.697577741194905 35.9510829527936 0 0 0
1913 3 1 0 46.48066463589146 33.950507856436 34.03685802432645 0 0 0
1904 3 3 0 47.7317284235099 33.94310983679302 36.42518462142828 0 0 0
1916 3 7 0 48.27646506264665 31.923338573618086 31.514098315646585 0 0 0
2924 8 12 0 47.04984406827291 29.936369775161335 37.52542921789296 3 5 8
2919 8 11 0 46.94229118560719 28.80377517799139 37.393876649616345 3 5 8
2 1 3 0 50.66374179542437 29.667121807154484 37.474687875568605 -1 1 0
4 1 1 0 50.83102789898784 29.570543106451556 36.373274143569276 -1 1 0
1729 3 3 0 50.878202559053804 28.941127094470538 30.91905078825654 0 0 0
2920 8 12 0 48.50252781939339 28.67637303973586 35.71812001062694 3 5 8
2923 8 12 0 45.83936785147303 28.55202099417769 37.62290343144693 3 5 8
1 1 8 0 51.53726154952909 30.17676049018692 37.777964165539444 -1 1 0
2914 8 16 0 45.61275474464767 28.281226820274824 34.10346507793525 3 5 8
1715 3 3 0 46.24361339809053 27.606772571240892 31.187046890897843 0 0 0
1906 3 1 0 46.618531629954305 34.050579478065316 36.402452776914934 0 0 0
5 1 2 0 49.79048440907173 30.352713959612764 37.41191739186238 -1 1 0
1731 3 1 0 50.5798941291014 29.4548972556858 31.802297246640244 0 0 0
1716 3 4 0 47.183316821416994 28.78590736755467 30.763543169656106 0 0 0
1722 3 3 0 48.52350431654451 28.046221969615395 30.574342911334295 0 0 0
1728 3 8 0 50.99919864036093 27.887691964311415 31.138195993883073 0 0 0
1917 3 8 0 47.16275960913792 33.54417642219926 31.115467679466324 0 0 0
1724 3 1 0 48.764935978637 27.714000944874172 31.60212717577777 0 0 0
1727 3 7 0 49.970786381891656 30.769803411185784 59.53029896600088 0 0 -1
1730 3 4 0 52.1324770649551 29.628693079412567 30.28967972624919 0 0 0
1738 3 1 0 52.391495012426375 31.252100652207545 31.67162957820352 0 0 0
1736 3 3 0 52.94669072134221 30.305188838333425 31.38511331660201 0 0 0
1735 3 8 0 53.122771048643436 29.787884620095213 32.281120660602205 0 0 0
1903 3 8 0 48.28281808790296 34.920747150673996 36.19328089706366 0 0 0
899 2 7 0 48.90146509381007 33.83902389796968 59.94718057865826 0 0 0
3018 14 12 0 59.93047047180538 32.32353291078513 33.23793619802222 -9 -2 2
3014 14 12 0 59.76697108329705 29.92587375475878 32.19460855316105 -9 -2 2
3012 14 16 0 59.60722125471709 31.30853767511896 33.7167521580718 -9 -2 2
1748 3 7 0 54.225607221273876 33.293863430980295 33.869782970972224 0 0 0
1741 3 7 0 55.37511995708536 29.25254372215133 30.226380059714952 0 0 0
1740 3 9 0 55.27958352970309 29.660067355549586 31.079028132981247 0 0 0
1742 3 8 0 53.97810717374465 32.74704970914869 30.89811294096282 0 0 0
1737 3 4 0 54.28718304207412 30.640242050541506 30.707475351257283 0 0 0
1747 3 9 0 54.010761899403555 32.505668638426066 33.37538381716872 0 0 0
3009 14 11 0 58.93873123365185 30.28656790599734 32.84391524150924 -9 -2 2
1746 3 5 0 55.536784513871616 31.062042379155365 32.83840286483451 0 0 0
1743 3 3 0 54.753926211458534 32.019313207853614 31.126017490849684 0 0 0
1744 3 4 0 55.13392750464449 32.05294622305624 32.605893143634916 0 0 0
1761 3 14 0 58.68860259896509 31.506702044861022 34.783983065427066 0 0 0
3010 14 12 0 58.630585848788066 29.24497777884436 34.714659826025915 -9 -2 2
3013 14 12 0 58.19247732251031 30.67022524538376 32.07038397401803 -9 -2 2
3006 14 11 0 58.44807711676284 29.010902200891916 33.58787030818481 -9 -2 2
3011 14 12 0 57.36734664617022 28.911227803784197 33.5170297140284 -9 -2 2
1752 3 1 0 57.10725125053624 32.796596861553645 32.293562009212295 0 0 0
1745 3 1 0 55.65662238245463 32.28673325572 30.536307883186105 0 0 0
1753 3 5 0 56.464584828583156 32.34933207570256 34.76326153422644 0 0 0
1758 3 4 0 58.822161722151726 32.81323645624538 35.23185806339491 0 0 0
1750 3 3 0 56.17053218323038 33.149567031001375 32.78857712296241 0 0 0
1749 3 8 0 55.81640126852047 34.12745850649438 32.4147981138127 0 0 0
1773 3 1 0 57.12841031014121 30.953760163590445 36.717886516187264 0 0 0
1782 3 9 0 54.8544609118121 30.982837839405327 37.063794592282754 0 0 0
1783 3 7 0 55.77331784786929 31.060550051470774 36.80195869071531 0 0 0
1764 3 3 0 58.77108512903291 32.94944960368554 36.71831252398277 0 0 0
1763 3 8 0 57.747936978152424 33.3174317586302 37.01523518266945 0 0 0
1770 3 8 0 58.29242920110936 29.686492425149375 37.08518183558235 0 0 0
1751 3 4 0 56.4318103227762 33.29618949340288 34.260066209565 0 0 0
1757 3 3 0 57.90459633367369 33.80852491186532 34.39947825651937 0 0 0
3005 14 11 0 58.961407417839645 27.62132877724302 33.102399414433904 -9 -2 2
3008 14 12 0 59.45555315006949 27.734416332446315 32.1150563404626 -9 -2 2
1771 3 3 0 57.91774699438257 30.611675450013944 37.46450218001532 0 0 0
1765 3 4 0 59.024846568440054 31.622541143775926 37.424616878507194 0 0 0
36 1 7 0 54.66560537760526 28.72006274138883 33.735482788977485 -1 1 0
35 1 9 0 54.10970710860524 28.02883114442808 33.434267933536184 -1 1 0
2192 4 8 0 58.05887433671691 27.521959424302043 37.06904654433194 -1 1 0
29 1 7 0 55.90766403457014 27.41391552174087 36.549364593955204 -1 1 0
1755 3 7 0 56.12138319612129 34.75600364791642 35.3878512833162 0 0 0
28 1 9 0 55.10705994107048 27.91218853955524 36.28975973656932 -1 1 0
3007 14 12 0 58.14112861179497 56.749395002255355 33.084751363460384 -9 -3 2
2197 4 14 0 59.22068781150133 56.37992344423783 35.04314507933188 -1 0 0
1739 3 5 0 54.23366847698823 30.714268773402093 59.53224396224199 0 0 -1
218 1 7 0 57.96234787082663 34.143512184334966 30.568152077414627 0 0 0
1733 3 9 0 52.83432480754093 28.533246277594923 59.579523483269824 0 0 -1
1734 3 7 0 52.55114991338419 27.71331558671583 30.122728345512634 0 0 0
982 2 9 0 33.776138798828136 34.06309930624869 33.819605911648715 0 0 1
983 2 7 0 33.504525278299404 34.70602943268936 33.17986465718497 0 0 1
1951 3 7 0 39.08692919457476 36.98678283763019 34.33749113961982 0 0 0
1949 3 5 0 36.97281213931355 36.37036525006259 34.03921658868186 0 0 0
1956 3 5 0 35.014602776193406 36.27030601116334 32.95615907606151 0 0 0
1954 3 4 0 35.094281313904446 37.318280235423686 32.57711420207146 0 0 0
1960 3 3 0 33.940692798971966 38.15387627961307 33.11094970534283 0 0 0
1961 3 4 0 32.96889230991652 38.899249012037075 32.087602865486694 0 0 0
1962 3 1 0 33.31214727845384 37.69284263379473 33.811954327224925 0 0 0
1964 3 14 0 32.24048216763652 37.85813431402947 31.405202871868145 0 0 0
2109 4 4 0 30.836328924133056 37.171762039688865 35.839021496473855 0 0 0
2108 4 3 0 32.00075758906861 36.220297891176756 35.459865766330765 0 0 0
1955 3 1 0 36.55046089150724 38.7727771078669 33.07398513037502 0 0 0
1953 3 3 0 36.54431456270409 37.806942632238936 32.58716881769684 0 0 0
1947 3 4 0 37.5711666588982 36.9138308987694 33.264725511542174 0 0 0
1959 3 8 0 34.27734771805853 38.909417399045495 33.843587019789695 0 0 0
1963 3 5 0 32.371326916705286 39.3571616444014 32.78602240953403 0 0 0
2111 4 2 0 31.818539225568966 35.214046088610544 35.92960388829606 0 0 0
2107 4 8 0 31.92259730466543 35.878321319687196 34.41124904119087 0 0 0
1967 3 3 0 33.705671544379236 39.89293008026195 31.178719392663453 0 0 0
1970 3 5 0 32.00867778677542 41.027099392252964 31.357377691322732 0 0 0
2971 11 12 0 30.674080872252336 39.129150228974254 31.346391337429527 1 0 1
2116 4 3 0 31.173952868473275 38.65922798025499 35.73601075286107 0 0 0
2110 4 1 0 33.01114633443669 36.639727053618046 35.76432761054379 0 0 0
462 1 9 0 36.386226441759575 39.096265009178246 35.44113549143326 0 0 0
2115 4 8 0 30.992927265985713 38.93550849572118 34.68244929083768 0 0 0
2959 11 16 0 30.946508935600583 38.14394722467072 30.92981519020038 1 0 1
1957 3 9 0 34.721084537240245 37.24097991317976 31.15393407949876 0 0 0
463 1 7 0 35.611597586528575 38.61167017590023 35.05942874959542 0 0 0
1952 3 8 0 36.78252166688149 37.98386800499842 31.548829399524003 0 0 0
2117 4 4 0 30.440186197990162 39.71861822587922 36.60717521423466 0 0 0
465 1 3 0 35.24203335673331 40.96848032281403 36.42194780843039 0 0 0
467 1 1 0 35.21985039945241 41.20004695537303 35.34134430139274 0 0 0
1950 3 9 0 38.541108365894395 37.65225856194302 33.87911409425242 0 0 0
2113 4 9 0 59.58973089861415 36.97493900224153 34.98855354864511 -1 0 0
2114 4 7 0 58.78465875027895 36.95280211572769 35.554060448430164 -1 0 0
2119 4 5 0 30.357506512297466 40.620702726203355 35.98906778024033 0 0 0
1976 3 1 0 33.95667737575049 41.186372177825376 33.19446405222946 0 0 0
2124 4 4 0 31.362062723303023 41.398526380061654 38.13281997150766 0 0 0
2118 4 1 0 32.27376102535378 38.7633946625675 35.8345623267914 0 0 0
224 1 14 0 59.947641425760736 37.14686320996918 31.450098973409332 0 0 0
2112 4 5 0 30.478826855136163 36.87285968144508 36.847443149657366 0 0 0
464 1 8 0 34.152111783250234 40.950585437666916 36.5644001553325 0 0 0
1968 3 4 0 33.08550932835195 41.248179096011825 31.33552423068368 0 0 0
1945 3 8 0 37.43224383573339 35.638215638290106 31.65825050772765 0 0 0
2123 4 3 0 30.942881301016097 39.9346541453152 38.00446635583129 0 0 0
2126 4 5 0 31.982344983897033 41.72869340047757 37.31733901754062 0 0 0
1979 3 7 0 32.344287519243466 41.70739649994317 34.74379738234699 0 0 0
2122 4 8 0 31.78491412045977 39.2568973236626 38.304202934468975 0 0 0
640 1 3 0 40.43541149363867 34.94829220971934 37.30825231767333 0 0 0
1941 3 1 0 40.03292483092989 34.85497800194144 31.13362656799135 0 0 0
642 1 1 0 40.02536229774874 35.65415523235863 36.54903323698543 0 0 0
1946 3 3 0 38.18403715211852 35.91833573843087 32.35596765770804 0 0 0
1948 3 1 0 38.87930918465153 36.56474395780822 31.707659168849833 0 0 0
926 2 14 0 42.09466899601523 37.990089692852735 32.74079892683446 0 0 1
928 2 8 0 42.01209197222548 36.21931459639895 31.11412993732663 0 0 1
923 2 4 0 43.27661065779122 37.33707746469434 32.43955679989712 0 0 1
925 2 5 0 44.092998646363895 38.01436739302166 32.39179455884058 0 0 1
921 2 8 0 42.97340464857636 36.32136816231557 34.20315890350297 0 0 1
922 2 3 0 43.694711232358465 36.29845408778749 33.46366227396012 0 0 1
924 2 1 0 43.766202601047766 35.32030027562389 32.8627299304333 0 0 1
3031 15 12 0 42.83995722769512 38.80122119814989 34.45613790764676 27 -21 0
929 2 3 0 42.983564575310695 36.68391372062317 31.07315427616768 0 0 1
931 2 1 0 43.68118861167697 35.874990352936756 30.83925413964232 0 0 1
623 1 14 0 41.058288617647754 39.62024672672708 34.006434809662814 0 0 0
3023 15 12 0 42.16684267863823 40.435208392181444 31.838685015106222 27 -21 0
3019 15 16 0 42.32282357251145 39.12790533334656 33.542966525776386 27 -21 0
3020 15 11 0 42.73581332077772 40.37106953032203 32.73190462345634 27 -21 0
3022 15 12 0 42.39723161349706 41.20644691704018 33.33050416101443 27 -21 0
3021 15 11 0 44.252629738955065 40.586062478831444 32.58888543894642 27 -21 0
625 1 8 0 40.82810669936138 37.787019998112214 35.36920139182438 0 0 0
626 1 3 0 40.986808648656655 38.54010896340743 36.13116551876741 0 0 0
635 1 1 0 42.197738709319246 36.02239248998743 36.552241906770774 0 0 0
620 1 4 0 41.211149942815325 39.94304431526112 35.40585851010121 0 0 0
618 1 8 0 39.17737640075851 40.413591695816066 35.047410420187276 0 0 0
619 1 3 0 39.95266798750377 40.71395305544141 35.735222278317565 0 0 0
622 1 5 0 42.12220370876206 40.447400817148896 35.82379255807877 0 0 0
939 2 5 0 40.94628339774705 38.83678318048886 30.573408197859465 0 0 1
628 1 1 0 39.98146072828524 38.57262481807488 36.664476626260985 0 0 0
3026 15 12 0 44.480998866492016 41.6109733387463 32.981757896782625 27 -21 0
3029 15 12 0 44.50617935513015 41.10725851974814 30.58154417814111 27 -21 0
629 1 5 0 43.08826918293868 38.438564928324695 36.84060715332465 0 0 0
613 1 4 0 39.952012261843606 42.17494296114471 35.40407062989055 0 0 0
615 1 5 0 41.0372982748476 42.45230854958212 35.296245405872206 0 0 0
627 1 4 0 42.07572206436734 38.109526658542784 37.11956321668949 0 0 0
633 1 3 0 42.22241441644525 36.63512501035519 37.4946091348271 0 0 0
3024 15 11 0 44.90862647750551 40.357734546255685 31.192858037758413 27 -21 0
3025 15 12 0 44.83864201453571 39.851444972121385 33.18544824034748 27 -21 0
920 2 7 0 45.18346020732787 36.55049841618492 35.76241795871927 0 0 1
916 2 4 0 45.13832733766755 36.7827981826986 33.84211650981292 0 0 1
918 2 5 0 44.97039934639203 37.85086757517074 34.21671101336631 0 0 1
912 2 14 0 45.54409009347046 37.89323950522916 30.60759396733159 0 0 1
616 1 9 0 39.34597738413848 42.85263870427553 36.46704346376515 0 0 0
645 1 7 0 37.843763068469336 34.29221358827073 38.9278153737916 0 0 0
621 1 1 0 39.692595819002264 40.63396160670946 36.843752624180865 0 0 0
632 1 8 0 43.155706363994646 36.53788553500339 38.1154975277617 0 0 0
917 2 1 0 45.90678220056135 35.83916670119394 32.01326441842493 0 0 1
919 2 9 0 45.670958564481275 36.133971496963895 35.03992541963888 0 0 1
282 1 8 0 45.77055784814259 38.107930161938235 36.80062907926193 0 0 0
184 1 8 0 51.66588488751263 35.12623940932398 37.16529994298282 0 0 0
903 2 1 0 49.40298188675088 35.72381017368457 30.946141692117294 0 0 1
915 2 3 0 46.17852480473631 36.658607399465275 32.74983297825604 0 0 1
914 2 8 0 47.103553421952526 36.38199116554933 33.144380898319156 0 0 1
911 2 5 0 46.65558426039684 38.815392600178 32.21604333110495 0 0 1
275 1 8 0 48.652558378888614 38.61906724117666 35.22317032217525 0 0 0
909 2 4 0 46.513308930537555 37.884047796656915 31.697732007126653 0 0 1
910 2 1 0 48.66297195255498 37.736027817787004 31.751275388072884 0 0 1
908 2 3 0 47.83922402544769 37.87999711486628 31.034971490575717 0 0 1
274 1 7 0 50.14484741106991 40.026797208296294 36.2072810884667 0 0 0
273 1 9 0 49.771433804220116 40.879970038383505 35.95831341606619 0 0 0
189 1 9 0 50.88810892266074 36.567129818902885 35.55284169493195 0 0 0
276 1 3 0 47.915534392311855 39.32762056629735 35.65739149295162 0 0 0
278 1 1 0 46.8900210634568 39.25439157829895 35.2122005476365 0 0 0
271 1 1 0 47.621865415819215 41.184394250478135 33.53113105526961 0 0 0
3028 15 12 0 45.95489822591996 40.51267046318709 31.236707021112604 27 -21 0
268 1 8 0 48.91094523539325 40.14118357667093 33.25949104630141 0 0 0
270 1 4 0 48.56499370524516 40.740311668620876 35.33406647976809 0 0 0
269 1 3 0 48.6497492496355 40.95450365712912 33.84736670250478 0 0 0
272 1 5 0 47.91833602575371 41.47155468999628 35.73717796115983 0 0 0
277 1 4 0 47.77826995097135 38.927489630370914 37.05724678210376 0 0 0
190 1 7 0 50.462164787288216 35.7955477206381 35.91833813719147 0 0 0
280 1 9 0 48.438967999626 37.70521934944343 37.246514074634405 0 0 0
261 1 8 0 49.707331404135715 41.391990408150086 31.403486882147277 0 0 0
256 1 4 0 51.6086061519576 41.347962442974 32.326263027737525 0 0 0
195 1 5 0 51.93112071992283 37.32744382661791 33.093741572272286 0 0 0
260 1 7 0 52.44846943441283 39.77541202560742 31.587537651358026 0 0 0
259 1 9 0 51.601416052738585 40.18552382873215 31.5498304120606 0 0 0
258 1 5 0 51.759139825753266 40.86868000487839 33.34085270969741 0 0 0
262 1 3 0 50.29989643909208 42.09155899011255 32.118863420987466 0 0 0
202 1 5 0 52.44675565018523 36.70893811919444 31.095707059820764 0 0 0
279 1 5 0 48.34871908822149 39.714844219571916 37.75219839175302 0 0 0
186 1 4 0 52.2351494954366 36.77350009941018 36.031015674713665 0 0 0
185 1 3 0 52.56569813972675 35.73319329299267 37.07264712973223 0 0 0
283 1 3 0 46.23726724527476 38.93470291634661 37.42173090332524 0 0 0
285 1 1 0 45.76128908231526 39.86139973933335 37.055877600355764 0 0 0
263 1 4 0 49.590744363501855 42.1552010945336 33.44132175293077 0 0 0
265 1 5 0 50.38503961007412 42.27131649646289 34.21208350996596 0 0 0
1759 3 1 0 58.28146029388098 33.996511242559535 33.392761973803985 0 0 0
204 1 7 0 53.28873019162235 35.19558267159763 32.543240961586555 0 0 0
197 1 7 0 53.73258003159944 38.936621226998646 34.79356965708931 0 0 0
196 1 9 0 53.04379573649504 38.899269439028394 34.139412792870615 0 0 0
1754 3 9 0 55.58124823389457 34.06296397939868 34.9904906449873 0 0 0
193 1 4 0 52.89998886519889 37.59936358613165 33.54305647655471 0 0 0
188 1 5 0 52.405182321297595 37.75754690915242 36.32726905952683 0 0 0
203 1 9 0 53.78602087324896 35.30402989881492 31.699721984726942 0 0 0
191 1 8 0 53.034421434623965 35.5006589348855 34.50584060082894 0 0 0
192 1 3 0 53.0688504290713 36.59912275961231 34.74821410191835 0 0 0
1756 3 8 0 57.81111761864402 34.76198137067054 34.87562329978737 0 0 0
194 1 1 0 54.0733851405429 36.82292747783035 35.05237271078548 0 0 0
187 1 1 0 53.457050244634736 35.191264624925815 36.781276524990176 0 0 0
201 1 1 0 53.818503400058724 38.64727383089732 31.960373019743578 0 0 0
200 1 4 0 53.50964762120098 36.63598177484303 31.298816216061944 0 0 0
199 1 3 0 53.892925953296555 37.606371588961764 32.39355281339997 0 0 0
219 1 8 0 58.03180258882511 35.69653771487489 32.014716276488365 0 0 0
198 1 8 0 54.7921514485321 37.50994599423323 32.876495294926876 0 0 0
222 1 1 0 56.59861089713549 36.654514319311176 31.438751602169734 0 0 0
226 1 8 0 59.17365682894673 38.775145660851436 33.24195372093301 0 0 0
227 1 3 0 58.24677178132542 38.54449574606055 32.60088670385687 0 0 0
229 1 1 0 57.48603227053562 38.01620803916935 33.36372893845345 0 0 0
221 1 4 0 58.64469850269589 37.65140579735296 31.359190013686476 0 0 0
220 1 3 0 57.65835644472617 36.432070078065095 31.248487608879916 0 0 0
228 1 4 0 57.66379160561364 39.97097857724859 32.394374403009856 0 0 0
2988 12 12 0 57.680250033700304 40.43705078568088 35.08889201120881 0 0 0
231 1 14 0 56.58365254022628 39.98507200519647 33.361738102204754 0 0 0
230 1 5 0 58.44343921084413 40.776326408163214 32.62896374066309 0 0 0
1192 2 14 0 55.579292721208446 40.31255164638907 35.45637390370471 0 0 0
2982 12 16 0 56.7171497344354 40.74058993504861 34.59441868558013 0 0 0
233 1 8 0 55.99819116267141 40.695780124647285 31.305850889578092 0 0 0
234 1 3 0 56.9629788822602 40.18548637966838 31.06831106294035 0 0 0
2979 12 11 0 56.43038397083814 42.199076280510106 34.26011284914201 0 0 0
1190 2 1 0 56.45923810361281 38.12581417365448 36.43929341457818 0 0 0
1188 2 3 0 55.854501649280934 38.68776900554829 37.16772560547095 0 0 0
1187 2 8 0 54.77311927643382 38.435641063719885 36.961117006644876 0 0 0
1189 2 4 0 55.938016991314385 40.18411975392834 36.844689809408536 0 0 0
1191 2 5 0 56.95708799079752 40.50747191711142 37.1076044504633 0 0 0
1197 2 1 0 54.05167029826763 41.31189462908669 36.8792126238675 0 0 0
257 1 1 0 53.45697262604442 42.255119957535044 32.60219067221376 0 0 0
1183 2 1 0 57.64082462206595 36.63554787271841 37.611427368546515 0 0 0
2120 4 9 0 58.984589763840205 39.2562141165308 36.781241304913095 -1 0 0
255 1 3 0 52.70460163412558 42.35630116271123 31.867266257395265 0 0 0
2121 4 7 0 58.416799380863395 40.01546472596624 36.66247895709611 -1 0 0
237 1 5 0 58.694364270687316 41.04452645150098 30.410282287818703 0 0 0
2983 12 12 0 56.25084662334102 42.320388848712554 33.187082706989074 0 0 0
1195 2 3 0 54.78834578209938 40.95927294158561 37.56339730338323 0 0 0
2984 12 12 0 55.478667110580794 42.507217373510684 34.76566255846694 0 0 0
2132 4 1 0 59.47809433842569 42.179384135446874 37.2760418387207 -1 0 0
205 1 8 0 55.01359690574185 37.88995882328466 30.31356374268474 0 0 0
206 1 3 0 54.29669753047817 37.07432343997257 59.93916590765806 0 0 -1
1974 3 3 0 33.59862685419814 41.974297800116844 32.484526657423736 0 0 0
1973 3 8 0 34.393467813372546 42.633094059110554 32.18828978307409 0 0 0
1977 3 5 0 31.489495579740908 42.478187209667595 32.73217349730186 0 0 0
1978 3 9 0 32.41445715243891 42.64155812355552 34.52954204338864 0 0 0
1975 3 4 0 32.41480990035067 42.77381169269924 33.1183116788803 0 0 0
1983 3 1 0 33.46631338273345 44.489531846876474 33.507972386762745 0 0 0
1981 3 3 0 32.63856770705969 44.24011896152332 32.849120234734514 0 0 0
1980 3 8 0 32.94773014393152 44.45592293056105 31.797563535529953 0 0 0
1995 3 3 0 32.38049330912729 48.767455036206194 34.118534054986426 0 0 0
1998 3 5 0 34.03120433997741 47.45716092745684 34.696264228980844 0 0 0
1989 3 4 0 31.666569300218086 47.35780766273575 34.13223766301439 0 0 0
1991 3 5 0 31.829945393916443 46.791403064175306 35.09772862559494 0 0 0
1990 3 1 0 33.009758733373374 46.59348424275559 32.60798300440764 0 0 0
1997 3 1 0 32.475474268964575 49.19300864913292 33.09244652932501 0 0 0
1988 3 3 0 31.946827213295446 46.451965193156965 32.974878232372774 0 0 0
2003 3 4 0 35.98607227910327 48.5436167625942 33.635132757077045 0 0 0