LAMMPS data file via write_data, version 15 Sep 2022, timestep = 120025

3596 atoms
17 atom types
3632 bonds
18 bond types
6624 angles
31 angle types

26.67004793965073 63.71895206035049 xlo xhi
26.43254693965073 63.48145106035011 ylo yhi
26.494048939650735 63.54295306035006 zlo zhi

Masses

1 1.00794
2 1.00794
3 12.0107
4 12.0107
5 1.00794
6 1.00794
7 1.00794
8 1.00794
9 1.00794
10 15.9994
11 15.9994
12 15.9994
13 28.085501
14 12.0107
15 12.0107
16 1.00794
17 15.9994

Pair Coeffs # lj/cut/coul/cut/omp

1 0.038 2.44997
2 0.038 2.44997
3 0.039 3.87541
4 0.039 3.87541
5 0.038 2.44997
6 0.038 2.44997
7 0.038 2.44997
8 0.038 2.44997
9 0.038 2.44997
10 0.228 2.85978
11 0.228 2.85978
12 0.228 2.85978
13 0.04 4.05343
14 0.148 3.61705
15 0.039 3.87541
16 0.038 2.44997
17 0.228 2.85978

Bond Coeffs # harmonic/omp

1 340.618 1.105
2 340.618 1.105
3 322.716 1.526
4 340.618 1.105
5 340.618 1.105
6 340.618 1.105
7 384 1.42
8 540.634 0.96
9 540.634 0.96
10 222.4 1.382
11 540.634 0.96
12 392.8 1.6652
13 392.8 1.6652
14 283.092 1.52
15 340.618 1.105
16 615.322 1.23
17 322.716 1.526
18 340.618 1.105

Angle Coeffs # harmonic/omp

1 39.5 106.4
2 44.4 110
3 39.5 106.4
4 44.4 110
5 39.5 106.4
6 46.6 110.5
7 44.4 110
8 44.4 110
9 70 109.5
10 46.6 110.5
11 44.4 110
12 58.5 106
13 33.3 113.4
14 33.3 113.4
15 33.3 113.4
16 33.3 113.4
17 39.5 106.4
18 57 109.5
19 57 109.5
20 42.3 113.1
21 42.3 113.1
22 42.3 113.1
23 31.1 149.8
24 46.6 110.5
25 45 109.5
26 50 120
27 68 120
28 46.6 110.5
29 44.4 110
30 55 120
31 39.5 106.4

Atoms # full

2735 4 6 0.1582725662730011 36.9021478641431 30.823638769334913 31.894508479377517 0 0 0
2733 4 4 -0.07599385528570435 37.70772949548918 31.355181440153498 31.314410887303005 0 0 0
2736 4 11 -0.3950629476901587 37.97431986276949 30.535429318160784 30.225471933255225 0 0 0
2737 4 8 0.1518580590827849 37.19594319283379 30.045074457314804 30.1552546106967 0 0 0
2739 4 3 -0.05066394452606343 38.914853207784674 31.481862447656965 32.16133998364272 0 0 0
2731 4 9 0.1351757459204818 36.77272669565626 32.32602058740358 29.65430883347482 0 0 0
2742 4 6 0.1612853811085381 39.3929877896466 29.449414782672207 31.699833504378226 0 0 0
2741 4 1 0.1344076478790927 39.70365485288861 32.10011129885453 31.589668383507117 0 0 0
2779 4 8 0.1365304861996822 44.05174751200888 29.25181667507621 27.991007186253487 0 0 0
2778 4 11 -0.4055428006393484 44.9811937819363 29.46663826140445 27.868044350069923 0 0 0
2777 4 6 0.149284082960451 44.927449335806955 27.915066505185813 26.578291835490848 0 0 0
2773 4 9 0.1345667320910716 44.595281105153845 26.74266681585171 28.672158779780577 0 0 0
2759 4 9 0.1378865155127255 43.53456971076512 28.68249768737507 31.66526817075679 0 0 0
2769 4 1 0.139917834711217 44.737815066828944 28.804628026230244 30.034606652461783 0 0 0
2748 4 1 0.1359597409996066 41.41779619876426 30.64642298694126 32.19943817260496 0 0 0
2760 4 3 -0.0402397434282909 44.274154241700444 28.17402658580671 32.29417616022922 0 0 0
2740 4 4 -0.07318308954097424 39.41446592681863 30.163169726754454 32.56162609579505 0 0 0
2762 4 1 0.1328488306115287 44.10223967110217 27.06010044548461 32.08733842963271 0 0 0
2775 4 4 -0.07960378323093864 45.58042125331679 28.31450195999355 27.35043725412473 0 0 0
2774 4 3 -0.05380566631975353 45.64664337646677 27.1569035304393 28.408011181102523 0 0 0
2767 4 3 -0.04912962637101831 45.703365841826596 28.676282833203057 30.437917039357096 0 0 0
2761 4 4 -0.06750673524307005 45.71515649169771 28.644211331692876 31.92845580269018 0 0 0
2766 4 9 0.1412795160707281 46.191082817866864 29.574854254016298 29.998450081263208 0 0 0
2768 4 4 -0.07480632578928093 46.393282950386734 27.55579241214727 29.682907238307823 0 0 0
2771 4 11 -0.3912750959327462 47.77879558584145 27.897421223407814 29.42985689212227 0 0 0
2770 4 6 0.1512311352790056 46.42424580322166 26.738295644575135 30.367820560235906 0 0 0
2772 4 8 0.1561596835005651 48.18222929743432 27.107443615803923 28.946619948802557 0 0 0
2591 4 9 0.135434700323834 49.190983741946816 29.99375187238211 31.326425785048553 0 0 0
2588 4 6 0.1625645885418262 50.217374090711466 28.86615247556954 29.581355441301223 0 0 0
2592 4 3 -0.05267752449306612 50.20235925480294 30.21935234112958 31.142347389003437 0 0 0
2586 4 4 -0.06696298840558429 50.89535024937432 29.043608650031448 30.432357270639066 0 0 0
2587 4 1 0.1452893277809184 49.992237330137414 27.161982380405366 31.200681349208146 0 0 0
2800 4 8 0.1549329945107044 50.60614156456286 30.687549859063832 26.664775390784502 0 0 0
2594 4 1 0.1309367912718909 49.91461697566454 30.996560375535903 30.407521140915843 0 0 0
2585 4 3 -0.03620770530314943 50.91362412054807 27.78616766171048 31.30801143612336 0 0 0
2764 4 11 -0.3927840009767489 46.83755143133966 27.853289020368052 32.40383991502244 0 0 0
2584 4 9 0.1423312492084352 50.81304886799107 28.130542640434854 32.31906779781068 0 0 0
2783 4 1 0.1360704994999556 47.56291626559177 29.129196254853042 27.113602384257756 0 0 0
2781 4 3 -0.05307200582574251 46.79877082819576 28.5875709849722 26.526044680269422 0 0 0
2593 4 4 -0.08768985473726054 50.89998227390879 30.88219754721698 32.31273449736844 0 0 0
2601 4 1 0.1247821375828804 51.142894984026356 32.55624457252112 30.94260985506617 0 0 0
2599 4 3 -0.0556115004767993 51.357114362918324 32.35605199010011 32.01738068843455 0 0 0
2763 4 6 0.1649479582651145 45.88290882302901 29.672412330838267 32.249932368389615 0 0 0
2935 9 16 0.1828988150980945 51.0529481433892 28.071323565310212 26.54367593624278 0 1 1
2936 9 16 0.1829142055861455 51.69750765688415 27.593173330436585 28.112948062288908 0 1 1
2590 4 8 0.155531945808132 51.99009577162553 30.404698917810812 29.855703204643103 0 0 0
2931 9 15 -0.03615260012296728 51.85515058915445 27.583906274673375 27.092958570991353 0 1 1
2589 4 11 -0.3887036689850275 52.16975033442549 29.423002365622054 29.98450123991733 0 0 0
2933 9 16 0.1613338796177775 53.992659890193536 28.12654727265906 27.27743797372357 0 1 1
2579 4 4 -0.06746371450908384 52.255726874631804 26.960398742028296 31.25780175451801 0 0 0
2581 4 6 0.1548073229890944 53.15463151450809 27.451890129293663 31.712664083313406 0 0 0
2602 4 6 0.148522216548965 53.46875685077116 32.139387850422736 32.18557687122023 0 0 0
2583 4 8 0.1435288285687395 52.97177009377344 27.04754194259012 29.479099495053894 0 0 0
2930 9 15 -0.02965223553263752 53.113618992326586 28.375467991898628 26.66273461082564 0 1 1
2932 9 16 0.1613247607496719 53.056262029130096 29.482736943557704 26.93993561753141 0 1 1
2734 4 1 0.137346740257942 36.042080670544266 32.71078223480714 31.245014108630393 0 0 0
2732 4 3 -0.04846573232095275 36.9948523922117 32.60638202790286 30.743090431180228 0 0 0
2726 4 4 -0.07393624867789256 37.79253672298117 33.91027268913352 30.758058875574907 0 0 0
2728 4 6 0.1549449895768129 37.09236395873612 34.69978672987964 30.34639346068664 0 0 0
2729 4 11 -0.3971626363332818 38.22264375970154 34.30961387244547 32.036130064860814 0 0 0
2730 4 8 0.1479662154813016 37.455449864402965 34.78572637738316 32.400797866495026 0 0 0
2727 4 1 0.1307347930837003 38.660080231082176 34.49045610687088 28.92611951114357 0 0 0
2724 4 9 0.1341610547050215 39.22821478993484 32.8585257472793 29.588797949470887 0 0 0
2725 4 3 -0.05085817397958692 38.97447507294046 33.948044019833716 29.828091434717145 0 0 0
2723 4 8 0.1426725570481819 39.269126840269536 36.35381043532141 30.536995966324927 0 0 0
2717 4 9 0.1379209653033407 41.41758665951193 33.09946970615557 29.457852419177655 0 0 0
2720 4 1 0.1259284293852933 41.37378227119886 34.57868640631031 28.50330923747851 0 0 0
2719 4 4 -0.07255330791326292 40.21010647757895 34.61633296460121 30.422822111365342 0 0 0
2718 4 3 -0.04827561117655538 41.41363659212265 34.21246464151595 29.55909372190356 0 0 0
2721 4 6 0.1600058138093175 40.288653590906335 34.22730013167531 31.45383954571505 0 0 0
2722 4 11 -0.3985608947478638 40.16769258535682 36.082079808521215 30.41001263739318 0 0 0
2716 4 8 0.1364795384621046 43.144974951260714 34.71954663051024 32.000345146200864 0 0 0
2712 4 4 -0.06907634245247152 42.73365667341364 34.73594806253901 30.16148178274248 0 0 0
2715 4 11 -0.4060368299148254 43.03581319726874 34.03841047769642 31.318677436823375 0 0 0
2714 4 6 0.16611794250549 42.58601598931676 35.792273491012416 30.336794816169395 0 0 0
2711 4 3 -0.04258766948150328 43.801174077253826 34.548268893758845 29.054211008253485 0 0 0
2710 4 9 0.1305937685152414 43.51872496853166 33.72568712300568 28.407053144086138 0 0 0
2713 4 1 0.1371284513692196 43.56619705622541 35.41676376915832 28.374729185123705 0 0 0
2422 4 8 0.154197157631819 42.01201234310379 38.187926919338224 32.04930357754014 0 0 0
1264 2 9 0.1432699044738264 40.19101525555986 38.011668377173066 27.449490248375398 0 0 1
2420 4 6 0.1665273193110453 44.02801454293606 38.20040068504772 32.47164769100082 0 0 0
1270 2 8 0.1391115207721994 41.9636153020944 38.033271393829686 28.322586787357228 0 0 1
2598 4 9 0.1312858971940742 50.57703396461729 33.04948139604008 32.43209155503294 0 0 0
2707 4 6 0.1629982679044687 45.38362369294062 34.28182129938809 30.544093583310257 0 0 0
2709 4 8 0.1455097912892024 45.119214295702065 36.4725218109242 29.608850537384708 0 0 0
2708 4 11 -0.4002735576477295 45.795178176824365 35.922024783089746 29.265470684651454 0 0 0
2705 4 4 -0.06918640724811215 45.32667133093834 34.595590414066656 29.40399707026261 0 0 0
2703 4 9 0.1363518191583366 45.881534401182265 32.56763297996944 28.71535078068052 0 0 0
2706 4 1 0.1296567740623155 46.35056881241879 33.84992971985626 27.58291287030278 0 0 0
2701 4 11 -0.3987320628515887 47.99603473721122 32.68766387592798 30.421823969106917 0 0 0
2698 4 4 -0.07705677154958607 47.60375719771601 33.74579084996651 29.520546260095553 0 0 0
2704 4 3 -0.04534841135481565 46.300798544845286 33.64360374743523 28.71658113407141 0 0 0
2696 4 9 0.1280449970262981 49.246061989269606 32.868948636669934 28.805604556591184 0 0 0
2697 4 3 -0.06056420219852032 48.77917109229185 33.8801679165872 28.621372551450403 0 0 0
2700 4 6 0.1620212251850115 47.50232661441538 34.62793985337789 30.13748794178651 0 0 0
2699 4 1 0.1260066020037785 48.55256051250922 33.95444056887103 27.60384246804731 0 0 0
2691 4 4 -0.07772181672572309 49.7026926814559 34.9696086705281 29.04843604599846 0 0 0
2694 4 11 -0.4063577692648261 51.0797961230589 34.698304626000336 28.813829057774456 0 0 0
2693 4 6 0.1376048042097509 49.73889706646193 35.14584639664454 30.11260881691991 0 0 0
2690 4 3 -0.05876989330577162 49.3372367157357 36.28727931809757 28.379513371912044 0 0 0
2702 4 8 0.1362227955063631 48.14193843573618 33.10143123039441 31.281642810148682 0 0 0
2692 4 1 0.1288390676800459 49.34645957007497 37.120534850336156 29.130568179660116 0 0 0
2684 4 4 -0.07574782411228054 50.258727094410446 36.6524774702812 27.10053217705844 0 0 0
2689 4 9 0.1252574457060884 48.34166306389595 36.358390014922506 27.94272704091164 0 0 0
2686 4 6 0.1549721557506988 51.23873666558382 36.700914571967814 27.607060245556774 0 0 0
2695 4 8 0.1417732179605143 51.21921605835741 33.78583762406632 28.727460901991332 0 0 0
3076 18 16 0.1653305178226712 46.7738171020341 36.77566547137528 31.444145015685443 0 0 0
3064 18 14 -0.0303378000164829 47.12687364297 37.75948615117258 31.72510777650882 0 0 0
2610 4 11 -0.4051317489944326 51.273132040542 35.52021335936546 32.36694386140712 0 0 0
2685 4 1 0.1378210164702332 49.80545526799247 38.72973484480863 27.2842473592383 0 0 0
3075 18 17 -0.4103439195237596 46.46661090449011 38.709288930133326 31.221833245002898 0 0 0
2972 11 17 -0.3948801033343439 46.777601574512914 38.52677338517378 63.525433809463834 0 0 0
2619 4 9 0.129547875907203 51.59512349409166 38.93661125623482 30.92521049266733 0 0 0
2616 4 6 0.1544742074418937 52.29680940142157 36.46768501414057 30.08013691426335 0 0 0
2613 4 3 -0.05947469525995358 53.25890803963215 36.842875728441946 32.043888578184706 0 0 0
2614 4 4 -0.07479951667374568 53.03463820741921 37.19240803276172 30.54826310822078 0 0 0
2618 4 8 0.1526235234553537 54.2121660863003 36.11392213267345 29.40208428928085 0 0 0
2617 4 11 -0.3945954104590123 54.30455753871634 36.96832901475826 29.832122001667486 0 0 0
2605 4 9 0.1401467280324448 52.60446554156574 34.28331530106001 30.79872949925621 0 0 0
2607 4 4 -0.0887126574725573 52.68144506944149 35.48953950586623 32.522938639666506 0 0 0
2606 4 3 -0.04818069500351402 53.124630704693274 34.224379987831554 31.788814634613225 0 0 0
2608 4 1 0.1341124250543209 54.1879050836272 34.20051559948194 31.479369623456943 0 0 0
2622 4 1 0.1299028596055092 52.1190563847084 38.619844241292256 29.240840157823857 0 0 0
2620 4 3 -0.05003264223386633 52.464090975180035 38.62062209078287 30.329936662580177 0 0 0
2612 4 9 0.1253186993620739 54.37262771307167 36.79489292839612 32.14297775409069 0 0 0
2615 4 1 0.1256952988502712 53.01695685333669 37.67120070262328 32.702922550487315 0 0 0
2600 4 4 -0.08073449000003402 52.73567971259925 32.862647049520604 32.52450881007315 0 0 0
2680 4 11 -0.3916461214208857 52.54150163856291 38.460076466235805 26.574058199398632 0 0 0
1845 3 11 -0.3930930646225263 37.588181458394104 42.49466841437825 31.432615854230022 0 0 0
1846 3 8 0.1434827130841184 36.725809710637726 42.07841455195802 31.19688987974096 0 0 0
1284 2 8 0.1489404530835046 38.85055077806303 44.853049508371676 29.10727083021471 0 0 1
1851 3 6 0.1622877616544607 35.66877667664217 44.32633849860672 32.40208366000821 0 0 0
1847 3 9 0.1383390226607276 38.22796071393795 44.641747076987656 32.24516801662136 0 0 0
575 1 8 0.1480511120231953 35.61460311838874 45.04081149419831 29.349162047981938 0 0 1
574 1 11 -0.3961809170616236 34.95055817498492 44.7840664935188 28.660217875824006 0 0 1
2875 5 16 0.187109306498053 35.891946281495855 42.84711826562702 26.73275387127405 0 0 1
1269 2 11 -0.3898523316926262 42.18744463852721 38.94189085413091 28.508748030832496 0 0 1
1265 2 3 -0.05308783392219885 40.48272038032638 38.80006858255033 26.81379901027947 0 0 1
1267 2 1 0.1310908734320012 39.52617743750862 39.18810362080147 63.51266086539263 0 0 0
1283 2 11 -0.4006442090378192 39.23336071026282 44.95067871161325 29.964678101099206 0 0 1
1278 2 9 0.1362269559408023 39.14861317799 42.75847633752639 28.85739803348906 0 0 1
1839 3 8 0.1411822143824319 39.270895352362146 40.012332244953164 31.38163044187651 0 0 0
1266 2 4 -0.06957471293740713 41.331235434435825 39.739866819027895 27.68003647402006 0 0 1
1268 2 6 0.1623994100863242 42.00770619120077 40.30015210682223 27.060760908005694 0 0 1
2968 11 16 0.160942500035764 44.57871658736582 39.677361511434235 28.447812820586446 0 0 1
1271 2 9 0.1342963783822321 40.24581460045819 39.833495322801376 29.414914817049137 0 0 1
1275 2 6 0.1603525919774121 40.95728578223027 41.922016290516325 30.18982812560313 0 0 1
1277 2 8 0.1519834228769162 42.90847367805725 41.90381146483231 29.466628679309608 0 0 1
1276 2 11 -0.3888390818028699 42.371833892294816 42.238259119965434 28.70667127458339 0 0 1
1282 2 6 0.1562456726546352 40.56592620844818 43.85935239646632 30.697571856466432 0 0 1
1280 2 4 -0.0740751516170583 40.44436917028784 44.27343851437054 29.777027269912878 0 0 1
1273 2 4 -0.07309925152686958 41.00166881388163 41.90507580338029 29.076650008400815 0 0 1
1279 2 3 -0.04259664535700147 40.144073990722596 43.154625009824294 28.730984676908506 0 0 1
1272 2 3 -0.04736598091435851 40.38817030025619 40.55374462071456 28.581002936608716 0 0 1
1281 2 1 0.1417159531843792 40.2912800039144 43.38184308830984 27.69286971880597 0 0 1
2407 4 11 -0.3437590404092783 44.21188943034329 43.404056533569786 30.97592273616437 0 0 0
2415 4 8 0.1786637629575347 43.586332448502 40.34586967134501 30.78613504015344 0 0 0
1838 3 11 -0.4102653658466195 39.80672886624785 40.39431134846584 32.13749259513608 0 0 0
2414 4 11 -0.342010038733955 44.14489360130727 40.61548203118402 31.493035073086396 0 0 0
1274 2 1 0.1334728576993907 39.47810046921851 40.698189363290766 28.147460660970967 0 0 1
2404 4 4 -0.006231650128527833 44.481261126210555 43.21775033080975 32.35552646605585 0 0 0
2413 4 6 0.1875824000095888 42.27115687434511 40.605211157901344 32.347381586787876 0 0 0
2411 4 4 -0.02534130142671559 43.34587372532924 40.848228507330205 32.65736043029459 0 0 0
2408 4 8 0.1939735003670648 45.052627677657355 43.23359957177603 30.577199618440392 0 0 0
477 1 8 0.1372615333858218 42.291662022405916 44.119608778434056 26.629246672108675 0 0 1
2967 11 14 -0.03763105919059329 45.80688877273653 39.186837957930706 26.743164442843288 0 0 1
2966 11 16 0.1828090576445922 45.83788688458123 41.41688348004187 29.203580602887286 0 0 1
2964 11 15 -0.02613417786414129 45.619965376753825 39.72140150023938 28.116503356885183 0 0 1
2969 11 16 0.1629098796802956 46.102095223464374 39.14272091666763 28.91751756268791 0 0 1
2406 4 6 0.2013186965640962 45.45831593450433 42.6624465739756 32.51181933436361 0 0 0
2965 11 16 0.182765533574796 45.4602219433409 41.795259690721664 27.584738920547792 0 0 1
2961 11 15 -0.03323899222494731 46.10804398867414 41.114877954037794 28.161488889307275 0 0 1
2959 11 14 -0.04136035634723578 48.09962362083978 42.54423262432451 28.60265586998275 0 0 1
2970 11 17 -0.406076388049703 47.27511655160103 43.1770678452879 29.292167224702766 0 0 1
2963 11 16 0.1633882019395851 47.70046596192609 41.37409778598611 26.86110564915232 0 0 1
2960 11 15 -0.02683240761459271 47.613409494697564 41.29150279102101 27.940023660577037 0 0 1
2962 11 16 0.1612575843210901 48.251510309689536 40.42124981293488 28.325244773648816 0 0 1
2971 11 16 0.1554578838381882 49.1994478183512 42.718408224643 28.668885387663927 0 0 1
2386 4 11 -0.3773282313119443 50.335060804484236 43.5620176518028 31.170397589337625 0 0 0
2392 4 6 0.188245472376752 47.53653369607707 44.08983931800635 31.54496547963422 0 0 0
3077 18 17 -0.4017722194814438 49.44900993295714 40.20835936354635 31.683520124846524 0 0 0
2387 4 8 0.1594154520660946 49.89618574178661 42.733059454313235 31.267718250355657 0 0 0
2383 4 4 -0.07169013615099057 50.47409399506056 43.87996829577709 32.57802397872308 0 0 0
2632 4 8 0.1533664798904474 50.745861168487664 41.253866082926415 29.74781040728926 0 0 0
2631 4 11 -0.4071254255904473 51.244138129089826 41.02091595908635 28.92957890772016 0 0 0
2637 4 6 0.1519472267561521 51.01085211625083 43.67362445879727 28.557866036261316 0 0 0
2390 4 4 -0.0286451483802721 48.004987255830216 44.808426654562865 32.2647126576735 0 0 0
2633 4 9 0.1291432892971647 52.5660512053454 42.22350130625167 27.033267213846226 0 0 0
2623 4 6 0.1456915677581715 54.51048006886994 39.11136614487749 30.651751252461118 0 0 0
2621 4 4 -0.0729271189724463 53.54443850864084 39.667184994557076 30.485959502580066 0 0 0
2635 4 4 -0.08381918184772935 51.98644788618601 43.87797780199917 28.1279134276486 0 0 0
2626 4 9 0.1333814283596768 53.751527746290805 39.968133421330954 28.2712481084005 0 0 0
2625 4 8 0.1487377104183525 54.13511702412843 40.366714872678614 32.17420388060335 0 0 0
2628 4 4 -0.08239889734638622 52.56310464722157 41.59014718539613 29.161790962367185 0 0 0
2627 4 3 -0.05197748765221394 53.684594373184694 40.56349156656616 29.208180712112245 0 0 0
2629 4 1 0.1375564207383655 54.69151988246172 41.05168155346077 29.268920359260946 0 0 0
2634 4 3 -0.05141968146392351 52.84742214260537 42.604139797840176 28.008355860369498 0 0 0
2630 4 6 0.1572092571595252 52.60479823242754 42.261461906625584 30.05281118437844 0 0 0
2624 4 11 -0.3948888092759223 53.32431123605657 40.397461753766294 31.69143356360731 0 0 0
2636 4 1 0.1364854221769475 53.89936289987517 42.81788804299261 28.064523847379473 0 0 0
2638 4 11 -0.3966555166701717 52.71215005978574 44.78372842459651 28.892862489642642 0 0 0
2641 4 3 -0.03893833218228221 51.71056921477296 44.44691576243886 26.766376400467184 0 0 0
2381 4 9 0.1227405552403335 52.39429975340517 44.65804259325676 32.05514590300578 0 0 0
2639 4 8 0.151637487335873 52.32679694192569 44.80575793761507 29.76379560744634 0 0 0
826 2 1 0.1351963965642248 57.35008632326521 44.76472607528677 30.509926439720687 0 0 0
1937 3 8 0.1543943796590146 28.249432365536688 47.59391705885561 31.649695727658692 0 0 0
1928 3 6 0.1574537922421657 31.453279151537586 47.58569815415592 31.06114769044999 0 0 0
1936 3 11 -0.3929688259810186 29.221471385076676 47.488515130032994 31.581364953889 0 0 0
580 1 6 0.1554567961060936 31.07360090969083 46.52849493192929 27.96709836865609 0 0 1
1929 3 11 -0.4031541968035444 31.980695518783282 49.30763736386146 30.112978939682108 0 0 0
1930 3 8 0.1561870536193928 31.062786902496434 49.364990369087295 29.821756207643226 0 0 0
1926 3 4 -0.08021035890099759 31.912928145449605 48.56317326673537 31.347540841443244 0 0 0
578 1 4 -0.07749142709544246 32.0561176418087 46.56649922475906 27.444122661884908 0 0 1
586 1 1 0.1291536537367323 31.925291644012546 48.745179910336944 27.531636627200267 0 0 1
5 1 2 0.1452625223796148 28.028972015198665 47.65285622316533 27.52405953170334 1 0 0
1 1 9 0.14973469382297 29.20606249740509 48.60262632163973 28.40217725171781 1 0 0
2 1 3 -0.04851753796855485 28.177719564578386 48.162112579655926 28.456688045413202 1 0 0
4 1 1 0.1552533355186409 28.197308539542373 47.36017515746795 29.239093075234234 1 0 0
584 1 3 -0.05828750046815628 32.15848760072031 47.95807463442461 26.795686475405088 0 0 1
3 1 4 -0.05325781788952744 27.118989785721258 49.26614270155484 28.749254694224582 1 0 0
12 1 1 0.134939565581876 26.98264025472214 49.69932213597201 26.57367456361678 1 0 0
6 1 6 0.1722415046925904 27.265132579759086 49.75145075888876 29.720965211242202 1 0 0
14 1 11 -0.4004025193191055 29.097121414375323 50.9625507482249 28.81880853986788 1 0 0
1931 3 9 0.1317259527915593 30.326268565694637 49.982216348542366 31.817530779384278 0 0 0
579 1 1 0.1355290431811724 32.730939134223455 45.602377728599166 29.243271849983284 0 0 1
10 1 3 -0.03707554938608226 27.102100278592687 50.28263114039052 27.5731415480354 1 0 0
1932 3 3 -0.05127092091197999 30.812583370031557 49.14941886175424 32.285436231815595 0 0 0
576 1 9 0.130602605758544 33.16575595140458 47.34826963025394 29.138631590704712 0 0 1
566 1 6 0.1604515040918406 37.471511826041855 46.8005624953152 28.60589254065407 0 0 1
572 1 1 0.125616485797586 35.48291563836919 47.2851554116197 29.62820133074524 0 0 1
577 1 3 -0.05350346741281459 33.098780484286394 46.413689819344754 28.508608897778146 0 0 1
564 1 4 -0.08091700580408157 36.70745965034871 47.189912869320004 27.903113638571266 0 0 1
569 1 9 0.1228192968108204 34.868250659120456 48.07629351795235 28.33618719420786 0 0 1
570 1 3 -0.06067053936413092 35.385607412082464 47.14834144071391 28.56772069729055 0 0 1
562 1 9 0.1411827967629614 36.71080117588777 49.307344712987 28.405174387949668 0 0 1
563 1 3 -0.05720643180251417 37.15099864384869 48.6363977450079 27.64485986351216 0 0 1
571 1 4 -0.08610224271584377 34.50892620435939 45.99749815529367 28.104909107434175 0 0 1
1927 3 1 0.137143723877249 33.95582078651742 48.51058121848649 30.954368764987745 0 0 0
573 1 6 0.1534973583869873 34.598156052406004 46.00012614033387 26.938774715548586 0 0 1
2820 1 17 -0.4080232749028058 36.744276919505154 49.7599334798269 30.779676512851356 1 0 1
2821 1 16 0.1492731634762953 37.928045817516676 49.01943109739959 32.23456461937544 1 0 1
1925 3 3 -0.05024282936470514 33.35839434292215 48.44997757100101 31.885283676892417 0 0 0
565 1 1 0.1324943558989413 38.31093654810527 48.71811984129538 27.75020277076521 0 0 1
568 1 8 0.1326482157767042 37.36615043997036 45.72668786895704 26.838566304366598 0 0 1
567 1 11 -0.4039163261073336 36.82379997154713 46.48609092818779 26.67911555588379 0 0 1
2809 1 14 -0.04579992207064321 37.804071731202825 49.82275417685623 31.428717924098848 1 0 1
583 1 9 0.1254565275154708 33.146744663002686 48.25279862272089 63.48702866760179 0 0 0
43 1 8 0.1544035061998227 34.844742391250065 50.96757103752792 28.775133281986946 1 0 0
558 1 1 0.1323642626193094 37.84257551944181 50.99966485775393 27.405306045526846 0 0 1
1924 3 9 0.1356209321843691 33.539812597965515 47.45660551954825 32.235488706357884 0 0 0
1923 3 8 0.1493081825765391 33.5699307868994 51.02579879586065 32.021858421770126 0 0 0
1921 3 6 0.1454980966963804 34.976027437872204 49.68659528535028 32.55370603641995 0 0 0
1285 2 9 0.127416919888753 41.78126926331849 45.186077129194686 28.37944387545189 0 0 1
1286 2 3 -0.05586800299839167 41.52988825936423 45.23360713778728 29.427729112374518 0 0 1
1288 2 1 0.1302013052588785 42.46437650167684 44.903239103731394 29.884378950602205 0 0 1
1291 2 8 0.1415815596717959 40.774687165800295 47.420123222218336 27.969503885639238 0 0 1
1290 2 11 -0.4036699794317456 41.58528031194863 47.45978765465935 28.450412722061166 0 0 1
1289 2 6 0.1353809182394259 40.20167291081633 47.051181613836846 29.909809427629494 0 0 1
1287 2 4 -0.07818770996242125 41.24800442961076 46.7975974394283 29.674919496258454 0 0 1
1293 2 3 -0.06135582722335242 42.26011745644288 47.24380272973551 30.744221958207724 0 0 1
1292 2 9 0.129889380750926 43.21838816528562 46.801468888210906 30.711760675317 0 0 1
1295 2 1 0.1256580491369863 41.81889339406185 46.740725613252295 31.64817542984722 0 0 1
1294 2 4 -0.08425544417902453 42.15757993617639 48.75796109497841 31.085894264617025 0 0 1
1296 2 6 0.15886429039516 42.304419729912595 48.85382699577337 32.17892922747184 0 0 1
1302 2 1 0.1264113115944887 43.773773799205514 50.13208621063464 30.963478504210862 0 0 1
1300 2 3 -0.05009179081349713 43.12314728913732 49.57640726562356 30.24379532621208 0 0 1
1301 2 4 -0.07983953528776261 42.44364489952834 50.50973518652094 29.1890080111921 0 0 1
1297 2 11 -0.3926933055879122 40.80377273434722 49.18140404766409 30.832760270387553 0 0 1
1298 2 8 0.1413007209415375 40.32993327333007 48.899408559266305 31.61484285372852 0 0 1
1303 2 6 0.1543736299338752 41.61336952454715 50.00966300569843 28.797241491238086 0 0 1
1299 2 9 0.1360565714788066 43.78804193373308 48.921550215877986 29.678915366648503 0 0 1
1306 2 9 0.134766646269069 44.533140116592335 51.073450073703086 28.277691281002447 0 0 1
1307 2 3 -0.04354336468747932 43.4533320310764 50.82967863401227 27.97517693921722 0 0 1
1312 2 8 0.1232789130013291 43.94711413463202 48.0330583832686 27.19135626622714 0 0 1
1311 2 11 -0.4225628359446582 44.4089972424779 48.77758762662542 27.02363599441337 0 0 1
3085 19 16 0.1815510110376257 45.104740995316675 46.57171902267879 28.296884588780532 0 0 0
2402 4 9 0.1661855050827255 43.46410623368314 45.11842901280488 32.85023239380549 0 0 0
1308 2 4 -0.08499446104471117 43.418378324730384 49.814583549812696 26.827078327269557 0 0 1
1310 2 6 0.1521878833865707 42.44663909923935 49.263728393605895 26.950617738538313 0 0 1
2401 4 8 0.1265275828369001 45.582754003019346 46.70334666965607 31.13509353443562 0 0 0
3086 19 16 0.1826325992324703 45.94821265855532 45.024855591375854 28.438206466620265 0 0 0
3082 19 16 0.1587681637308825 47.88981278515201 46.30295734087324 29.116129544766558 0 0 0
3081 19 15 -0.04170973019649804 46.01387237165205 46.072994614722376 27.98478556794688 0 0 0
3080 19 15 -0.03198743363939194 47.29531697383794 46.91550119329453 28.383400144308165 0 0 0
2400 4 11 -0.4038911101796753 45.71606660364668 45.71491973453285 31.20934182874376 0 0 0
2394 4 8 0.2065527733821987 48.763390063834535 45.579771951353266 30.82393826751105 0 0 0
2393 4 11 -0.332584040329495 48.457744074487046 45.95005055234635 31.607479017576402 0 0 0
3091 19 16 0.1498168849398416 47.917970134024614 49.09825186120879 28.787316856391683 0 0 0
3079 19 14 -0.04559113016720306 47.13621537224823 48.33843919332045 28.85663077667584 0 0 0
3090 19 17 -0.4104771757835921 46.12813433930728 48.61599563819354 29.49572949400978 0 0 0
2361 4 3 -0.0539219918244396 48.638432886242995 49.067428907786464 32.32929268703472 0 0 0
2360 4 9 0.1361048898276949 49.11078679924341 48.74090039292582 31.418113257472946 0 0 0
2384 4 1 0.1233048391022455 51.261937353729195 45.90870172931923 32.2850139971132 0 0 0
2397 4 4 -0.032976252220484 45.577279762684014 45.57873125890205 32.6381749987559 0 0 0
2357 4 6 0.1654024878453022 47.0313345557437 50.28425066423088 31.372397768898047 0 0 0
2355 4 4 -0.07468720868480672 47.88974951986769 50.37218939025458 32.16512874464499 0 0 0
3083 19 16 0.1573879387877724 47.96636611259699 46.93398762818586 27.489492487499717 0 0 0
2363 4 1 0.1335802230185562 47.94085551153423 48.29028814632326 32.718259738771 0 0 0
2645 4 11 -0.3991012133923549 50.406445089912296 46.11700656401143 27.884976461728847 0 0 0
2646 4 8 0.1519997533684076 50.793598976494366 46.60632621691066 28.628931828512798 0 0 0
2642 4 4 -0.06854292133540318 51.36854431302763 45.959887386227024 26.848911058842415 0 0 0
3084 19 15 -0.02887205050395414 45.88392200033061 45.83158247341307 26.505606169295806 0 0 0
816 2 9 0.1337825403310954 55.07185158930224 45.227890341550676 29.779947628010802 0 0 0
808 2 8 0.1547153096831997 53.16138859605284 49.67641937910179 27.369240495033313 0 0 0
813 2 6 0.1580705754862627 54.19036180200344 47.02144678299298 28.4696543515386 0 0 0
807 2 11 -0.3936214392477071 52.71848576289679 49.67339427580923 28.18703229602749 0 0 0
804 2 4 -0.06952431234261347 53.73969245577551 49.80016252868841 29.203620300140887 0 0 0
811 2 4 -0.0722910519268406 54.836961587851384 47.389984237198576 29.353914551791224 0 0 0
810 2 3 -0.03879907023194851 54.02433128717634 48.49258894076041 29.99480024880422 0 0 0
812 2 1 0.1314095722178132 54.423071491329765 48.74041858470183 31.012066040904156 0 0 0
809 2 9 0.1393193719878993 53.033272446053374 48.043980518759156 30.25432524971753 0 0 0
817 2 3 -0.05022427515334915 54.92385357940499 46.17699973327203 30.290658364130092 0 0 0
818 2 4 -0.06203083136089049 55.96260570912099 46.295936123786916 31.425032498852502 0 0 0
814 2 11 -0.3942788369330941 56.07723957600436 47.83463525767372 28.874223884689545 0 0 0
819 2 1 0.1363421171377682 53.935941819322515 46.07947245298992 30.759181970598316 0 0 0
815 2 8 0.1545082175015185 56.02676249856846 47.66952283083574 27.929288092122242 0 0 0
806 2 6 0.1580709356420359 54.64403190948734 49.980831300745066 28.65346870959941 0 0 0