LAMMPS data file via write_data, version 15 Sep 2022, timestep = 125008

3596 atoms
17 atom types
3632 bonds
18 bond types
6624 angles
31 angle types

26.191434179584135 64.19756582041614 xlo xhi
25.953933179584126 63.96006482041574 ylo yhi
26.01543517958413 64.02156682041587 zlo zhi

Masses

1 1.00794
2 1.00794
3 12.0107
4 12.0107
5 1.00794
6 1.00794
7 1.00794
8 1.00794
9 1.00794
10 15.9994
11 15.9994
12 15.9994
13 28.085501
14 12.0107
15 12.0107
16 1.00794
17 15.9994

Pair Coeffs # lj/cut/coul/cut/omp

1 0.038 2.44997
2 0.038 2.44997
3 0.039 3.87541
4 0.039 3.87541
5 0.038 2.44997
6 0.038 2.44997
7 0.038 2.44997
8 0.038 2.44997
9 0.038 2.44997
10 0.228 2.85978
11 0.228 2.85978
12 0.228 2.85978
13 0.04 4.05343
14 0.148 3.61705
15 0.039 3.87541
16 0.038 2.44997
17 0.228 2.85978

Bond Coeffs # harmonic/omp

1 340.618 1.105
2 340.618 1.105
3 322.716 1.526
4 340.618 1.105
5 340.618 1.105
6 340.618 1.105
7 384 1.42
8 540.634 0.96
9 540.634 0.96
10 222.4 1.382
11 540.634 0.96
12 392.8 1.6652
13 392.8 1.6652
14 283.092 1.52
15 340.618 1.105
16 615.322 1.23
17 322.716 1.526
18 340.618 1.105

Angle Coeffs # harmonic/omp

1 39.5 106.4
2 44.4 110
3 39.5 106.4
4 44.4 110
5 39.5 106.4
6 46.6 110.5
7 44.4 110
8 44.4 110
9 70 109.5
10 46.6 110.5
11 44.4 110
12 58.5 106
13 33.3 113.4
14 33.3 113.4
15 33.3 113.4
16 33.3 113.4
17 39.5 106.4
18 57 109.5
19 57 109.5
20 42.3 113.1
21 42.3 113.1
22 42.3 113.1
23 31.1 149.8
24 46.6 110.5
25 45 109.5
26 50 120
27 68 120
28 46.6 110.5
29 44.4 110
30 55 120
31 39.5 106.4

Atoms # full

2700 4 6 0.1536613730915868 37.777803539012424 27.029529323001938 31.29492625664983 0 0 0
2699 4 1 0.1354238959073216 36.159584786165944 28.677179320005102 31.437514841874123 0 0 0
2696 4 9 0.1375488317959272 37.57087074073134 29.554931332691943 31.491763360452524 0 0 0
2698 4 4 -0.08064904933734829 37.81209830279807 27.59695636923234 32.22023020902279 0 0 0
2697 4 3 -0.04904223664205645 37.01225289202523 28.865522155018155 32.07831275577701 0 0 0
2709 4 8 0.1391055800761562 39.23397848227178 26.82079954273968 29.48848719633231 0 0 0
2708 4 11 -0.4084597865713754 39.53744328852492 27.657499028743768 29.87388743801502 0 0 0
2711 4 3 -0.06566432952925431 41.6374743795224 27.545732953173886 31.215515457163633 0 0 0
2705 4 4 -0.08856825803713819 40.12225140960459 27.3300004924642 31.19958423765275 0 0 0
2714 4 6 0.1586717082824595 41.7616788306052 28.33397856472221 29.26884435568356 0 0 0
2716 4 8 0.1511095169993756 43.68135227825074 28.249872613809142 29.314942499809472 0 0 0
2712 4 4 -0.08071719609917602 42.10747826672683 28.663922842905137 30.284148900254472 0 0 0
2715 4 11 -0.4002649363216216 43.50307155792354 28.685007034595884 30.172479965188636 0 0 0
2718 4 3 -0.05208780222625697 41.58341163977374 30.030838666578347 30.767318809511742 0 0 0
2721 4 6 0.1538715229882056 42.58340566229161 30.620853127019316 28.938831957832384 0 0 0
2717 4 9 0.1292207727306529 42.13589392880915 30.267181483129335 31.589864666066475 0 0 0
2720 4 1 0.1331837109820769 40.49459761207899 30.036454560557914 31.021432668220697 0 0 0
2719 4 4 -0.07390903144816718 41.887242276903756 31.025718962403964 29.660009771649154 0 0 0
2710 4 9 0.1248560452957848 42.14464294481208 26.70297863707296 30.925469242220426 0 0 0
2713 4 1 0.1278495004980673 42.01250201195059 27.768691826114303 32.23579963646211 0 0 0
2707 4 6 0.1558486421491664 39.97907923824867 26.224235157738132 31.36039099648528 0 0 0
2722 4 11 -0.3968016580895955 40.702799784707615 31.13830633896749 28.90374339297265 0 0 0
2723 4 8 0.1454331921668562 40.915243544896754 30.66191569792459 28.05673020793837 0 0 0
2704 4 3 -0.05745712083281004 39.33870538241762 27.829072015210407 32.41036006265704 0 0 0
2724 4 9 0.1253492572861653 41.936670978303965 32.54657713063515 31.27328708471949 0 0 0
2725 4 3 -0.05458053818322478 42.251033637956056 32.411557539579945 30.19123200257771 0 0 0
2731 4 9 0.132211314544054 44.3879664925828 30.78473385820691 30.91312142274756 0 0 0
2738 4 9 0.1385150407639222 45.98917228759859 31.146758197472824 29.026549357295487 0 0 0
2755 4 1 0.1353996091560093 47.31408665972619 31.154316699924706 26.235202730974116 0 0 0
2752 4 9 0.1359367423912131 47.07506024819388 32.51214275736893 27.510171382724693 0 0 0
2745 4 9 0.142427987750477 47.73559501289502 29.888427376876106 28.163953092695028 0 0 0
2741 4 1 0.1362002607489969 46.30542336614606 30.067246655171935 30.355901080959146 0 0 0
2746 4 3 -0.04090766227979459 48.497722901197406 30.575085808459875 28.51914817873974 0 0 0
2748 4 1 0.1355484741383299 49.31266974245516 29.922238156040798 28.904633491309703 0 0 0
2739 4 3 -0.05124721637351504 46.53834327649446 31.032793780105592 29.94728224374081 0 0 0
2740 4 4 -0.07131764160446841 48.017589167572304 31.306130185184706 29.77773388797253 0 0 0
2742 4 6 0.1627405173198617 48.36810614398715 30.630565165923674 30.557641693215306 0 0 0
2743 4 11 -0.4037709192245273 48.47192118220289 32.6436897726832 29.82955328837157 0 0 0
2744 4 8 0.1389040427417798 49.273186271694556 32.63391499712712 30.418954598961022 0 0 0
2733 4 4 -0.06214009103077756 45.967414654835004 32.13646371416818 30.941782643581988 0 0 0
2736 4 11 -0.4019432992037001 46.76356698846026 32.1946462022973 32.0920641586444 0 0 0
2753 4 3 -0.05012945863828377 47.80189257410197 32.032721690173204 26.757283358294192 0 0 0
2747 4 4 -0.07958548981053254 49.01378225083038 31.46779270289101 27.445213007012384 0 0 0
2749 4 6 0.163656537460711 49.55861968769865 32.31131590973782 27.827675309759737 0 0 0
2732 4 3 -0.04909956066178311 44.56035432666466 31.817526064671853 31.11304598207506 0 0 0
2737 4 8 0.1497794485213123 46.80428508543824 33.08650405745775 32.34564232282902 0 0 0
2805 4 6 0.1663920481190843 34.978664016364036 38.05118309687776 27.41289483746047 0 0 0
2807 4 7 0.1646495095869986 35.26259849412611 38.677248909278006 28.937961857328688 0 0 0
2803 4 4 -0.05222874884024697 35.82958979479157 38.44445171046973 28.052885729080327 0 0 0
2674 4 8 0.1373101169648476 33.08766598976811 36.94622899843304 30.72457711382573 0 0 0
2673 4 11 -0.4046378912994782 32.909510840968636 36.1860759657158 31.2360101843584 0 0 0
2801 4 9 0.1453222889848965 36.44033304700698 36.76314313110745 29.317594167537493 0 0 0
2802 4 3 -0.04149419922548481 36.846614115516196 37.28705634309393 28.391403030078564 0 0 0
2804 4 1 0.1510400585171714 36.891158142732685 36.55417834106023 27.528055042628782 0 0 0
2681 4 8 0.1332880688313527 35.45809832397248 33.82927133136436 30.579053033216823 0 0 0
2679 4 6 0.1498503625677765 33.55351375595291 33.67470658650711 31.16947447468638 0 0 0
2672 4 6 0.15694950835845 34.96975219299031 36.17253075133375 31.584859618185018 0 0 0
2680 4 11 -0.4118669391614311 35.5743086341993 33.84875188958005 31.558502375128654 0 0 0
2727 4 1 0.129567019122738 41.60060042555889 33.169131848374626 29.70991081346065 0 0 0
2726 4 4 -0.06846479384630605 43.72709733817915 32.730201222158534 30.20194442868135 0 0 0
2730 4 8 0.1359978462275053 43.64374866609104 33.323525354244666 28.336380012552077 0 0 0
2796 4 4 -0.05737826655908551 38.22637929894278 37.82046885031694 28.729555616120255 0 0 0
2795 4 3 -0.04875388979009943 39.342876331682305 36.95816625173027 28.11235053126831 0 0 0
2794 4 9 0.1318009798872283 39.0657664983531 35.99795114492494 27.669094449146105 0 0 0
2797 4 1 0.1334753509591985 39.67795304548685 37.43407097148226 27.14804375600345 0 0 0
2728 4 6 0.1636506007396865 43.8923407157711 33.689905746732386 30.65962429835362 0 0 0
2789 4 4 -0.07787084320338589 40.56036341761883 36.75880910333721 29.0289859102546 0 0 0
2793 4 8 0.1383868047097374 41.55296052125545 35.726364227638555 27.872745089828644 0 0 0
2792 4 11 -0.4051878507615453 41.177518012320036 35.50551280383992 28.721528142098478 0 0 0
2791 4 6 0.1526381110471536 40.26310754848393 36.66247435854983 30.01250299440494 0 0 0
2799 4 11 -0.3927266703223219 38.35890343826354 37.90879067445379 30.10689055961696 0 0 0
2790 4 1 0.1320508625068928 40.9280557813369 38.7847877261275 29.30652360085595 0 0 0
2787 4 9 0.1354504645936147 41.701276767858225 38.31452332800099 27.872644019437125 0 0 0
2788 4 3 -0.05247420285026788 41.49138142107488 37.93326148590842 28.896697653113243 0 0 0
2782 4 4 -0.08063673331296134 42.82122677460569 37.826181035886805 29.642455653988804 0 0 0
2785 4 11 -0.4078927209239887 42.64593557580963 37.34467274159 31.03040763376788 0 0 0
2798 4 6 0.1616526178068843 38.485105969067554 38.821877264351805 28.316479602735352 0 0 0
2786 4 8 0.1383584849921138 42.500448076322854 36.395177394569735 31.03825199177471 0 0 0
2616 4 6 0.1543719027799094 40.36609548275156 36.442576472934334 32.236605483001895 0 0 0
2780 4 9 0.1330984359293875 43.540122411290895 35.8326665181634 29.267101704643007 0 0 0
2784 4 6 0.1503394230625083 43.23128603593831 38.805339499138086 29.649737461934087 0 0 0
2729 4 11 -0.4002499998900022 44.23168454072207 32.753527911173634 28.841582743845475 0 0 0
2783 4 1 0.1380137776769512 43.81088240610592 36.98447770962127 27.84306548161581 0 0 0
2781 4 3 -0.05481390345916015 43.84492533106612 36.87123903071205 28.98904463593717 0 0 0
2800 4 8 0.1514444395981645 37.82181086956258 38.62281867238424 30.406857094901177 0 0 0
2735 4 6 0.1567102503177309 46.034190895443885 33.07220692943439 30.420422107335497 0 0 0
2759 4 9 0.1290290684270766 46.207977903948475 33.88290439787596 26.147068679974694 0 0 0
2489 4 1 0.1274988320133406 49.301864348421724 36.25265961561409 31.52800471105785 0 0 0
2777 4 6 0.1472491847289196 45.24322796644319 36.730657376302105 30.60814300240579 0 0 0
2773 4 9 0.1390227159762294 46.8327558334086 35.57026148149649 29.73103792211125 0 0 0
2774 4 3 -0.04683341691320547 46.28681950230714 36.10679047278408 28.951251219087684 0 0 0
2775 4 4 -0.07478481067111714 45.21820719234201 37.100117894113765 29.58445198121488 0 0 0
2776 4 1 0.13562035136905 45.76528255603714 35.41397138112832 28.309448280262323 0 0 0
2778 4 11 -0.3977835856568133 45.62126759771007 38.4930392456544 29.529874592590627 0 0 0
2779 4 8 0.1397496750161653 45.93143422780909 38.72282777096535 30.426414095970785 0 0 0
2768 4 4 -0.07188085359122415 47.42204075479654 36.760954563905955 28.069609300856467 0 0 0
2771 4 11 -0.3936560204302021 48.38851992317636 37.467463211019215 28.8609248712218 0 0 0
2490 4 6 0.1355659791402504 46.923135160074736 37.122427179911156 32.093330683805185 0 0 0
2770 4 6 0.1567416705770118 46.850394319401246 37.60008515509362 27.569578447658827 0 0 0
2827 2 16 0.1588637694204806 51.053863462163804 38.07381889794638 31.185457515087904 0 0 1
2769 4 1 0.1405332646864511 48.11391746132639 34.75096195847866 27.764813628324042 0 0 0
2772 4 8 0.1483307513067754 48.04510056619665 38.36901933139703 28.971024527307858 0 0 0
2767 4 3 -0.0442384994838515 48.13272348859775 35.70533289408331 27.162882988947544 0 0 0
2734 4 1 0.1316005300147341 44.26127798999276 31.969978914657545 32.14162805572699 0 0 0
2766 4 9 0.1371190880902494 49.225542284371784 35.92124484283982 27.252610308133647 0 0 0
2761 4 4 -0.07384746273689169 47.58285651817826 35.52904534719302 63.79406575129939 0 0 -1
2837 2 17 -0.4025400458964149 52.04537645201808 35.52561835330536 31.127204685117455 0 0 1
2838 2 16 0.1577664661757232 53.47486394030258 35.35944846506188 29.907250973385352 0 0 1
2832 2 14 -0.0407225733977078 53.123031654160215 35.884278303412096 30.737989179331944 0 0 1
2834 2 16 0.1594885849341453 53.69675086960369 37.7894332132783 30.184098508742434 0 0 1
2833 2 16 0.1616162806953156 54.724762176102566 37.052605763486156 31.5553770739753 0 0 1
2829 2 15 -0.03081198852769351 53.70291228834587 37.219237675158034 31.155072463429402 0 0 1
2826 2 15 -0.0423100301184105 52.89452829530205 37.794976505495924 32.23533720166954 0 0 1
2831 2 16 0.179461367002168 53.59308056562269 38.276803495534345 32.90555832989951 0 0 1
767 2 9 0.1267564787345811 27.742105122965633 43.11990155510347 28.513914052743893 1 0 0
773 2 8 0.1582845781422653 30.201059977684487 44.19008220902748 27.543368374037428 1 0 0
772 2 11 -0.3917130334625977 29.54363983984101 44.8325013833901 27.398316543064833 1 0 0
771 2 6 0.1621465657126325 29.480915413921526 44.647892172866165 29.394747398930853 1 0 0
768 2 3 -0.06250188188760242 27.48105724726798 44.198059678001485 28.613482542389857 1 0 0
762 2 4 -0.08325186395451067 26.63255745027773 44.538335166605144 27.395168340997852 1 0 0
2660 4 8 0.1426214703637886 32.321531344466045 42.74272878814937 31.375649074970447 0 0 0
765 2 11 -0.3982826792853976 26.887651959178037 43.65272621629179 26.343997478559682 1 0 0
2808 4 8 0.1615194509178032 36.161193044863346 39.79747286056841 26.68633419663979 0 0 0
2806 4 11 -0.3855873955212662 36.470441678428 39.60182745503141 27.571626129200858 0 0 0
2666 4 11 -0.4007366933453668 34.78261693096568 38.651082187846825 31.33542497262611 0 0 0
2659 4 11 -0.4042788131616018 32.217053333538125 42.007501868427426 32.02029701848051 0 0 0
2644 4 6 0.1554078235866429 37.396663415892355 42.19729328395529 28.337693988932443 0 0 0
2642 4 4 -0.08168203200214863 37.30232701609744 42.37008304877044 29.448727751629015 0 0 0
2645 4 11 -0.4074635024723601 37.37983664426262 43.805185283000235 29.63245546908214 0 0 0
2650 4 1 0.1241055996695846 35.32977387999863 41.511056090843034 29.238643108654568 0 0 0
2648 4 3 -0.06660619290802516 36.036996524765286 41.705091744035414 30.031868845540536 0 0 0
2652 4 11 -0.413041319739042 34.35862234882664 43.30330782141236 30.462710441249246 0 0 0
2647 4 9 0.1253638825646634 36.21595943751926 40.67772281893045 30.410982216410197 0 0 0
2649 4 4 -0.08377072873166463 35.32739995096748 42.572836740248135 31.068574869364245 0 0 0
2658 4 6 0.153486772725824 33.489603934975456 40.93527525345232 30.653835874134764 0 0 0
2651 4 6 0.1528435000865682 35.99206882823292 43.34784723376971 31.526891481800135 0 0 0
2656 4 4 -0.08158274837455493 33.32654870227635 41.13963921584464 31.753493890467524 0 0 0
2655 4 3 -0.05334367730943401 34.616563509489886 41.89102385770862 32.235294856392734 0 0 0
2646 4 8 0.1403447009030255 37.051813868726185 44.173295759289005 28.861453908728727 0 0 0
2653 4 8 0.1470886276404998 34.59601511497067 44.201943619376124 30.6291304940355 0 0 0
2640 4 9 0.1330839523765332 38.53791523365178 40.557954923119624 29.871820577844364 0 0 0
2641 4 3 -0.05253212903961318 38.59633988424253 41.67186049846685 30.011379246443212 0 0 0
2661 4 9 0.1298797502774127 32.23436886004325 39.354520996168304 32.17304592775995 0 0 0
2633 4 9 0.1278759379924347 39.55658981107571 39.81431923905586 31.55369427536906 0 0 0
2635 4 4 -0.08644809981073492 38.779382483637 41.85421905701772 31.52825720105865 0 0 0
2643 4 1 0.1389286108619472 39.46864488788515 42.081735165531065 29.48853592327077 0 0 0
2638 4 11 -0.3918888936519849 39.72962936248891 42.85675116124296 31.67763356102506 0 0 0
681 1 9 0.1346210236877518 42.11972810329055 43.39947625937549 31.311818583779008 0 0 1
1368 2 8 0.1423943992101081 39.38615599859459 44.296281085933416 27.280410631581585 0 0 1
1367 2 11 -0.4080402961678525 40.23578591377433 43.83817637378759 27.184433180052107 0 0 1
686 1 11 -0.3972579076213447 42.711637759765566 41.53111835393973 29.882409430228854 0 0 1
683 1 4 -0.07629290313874537 43.215536430258325 42.86573514185435 29.551367416012607 0 0 1
685 1 6 0.15711119541542 42.81608524661356 43.24612111706836 28.56685293793268 0 0 1
687 1 8 0.1443280307234813 42.476645264417606 41.00032324731657 29.122240825287083 0 0 1
682 1 3 -0.04844715946808625 42.9363611130457 43.813503947374784 30.721751184879633 0 0 1
1375 2 8 0.1308936375885666 40.17199617494444 40.84264484523546 27.49577415671492 0 0 1
1374 2 11 -0.4234255078337621 40.78990344204611 40.41237926653506 26.890223850295406 0 0 1
1382 2 8 0.1377326534506516 44.18902155073749 39.740527750261975 27.201269977308293 0 0 1
1373 2 6 0.1319795868930879 41.853148067906865 42.05306667785281 26.869259687751263 0 0 1
1381 2 11 -0.4101034717025028 43.84693825480932 40.53133926803578 26.768013951152522 0 0 1
684 1 1 0.1333848352830853 43.76026966897327 43.86940077684656 31.465040088457116 0 0 1
674 1 9 0.1332812727034614 40.672021600118285 44.48204847593104 29.82260815602134 0 0 1
689 1 3 -0.04225703083331545 44.715219395123725 42.91437772834902 29.316182360396592 0 0 1
691 1 1 0.1392404939228732 44.75553075098168 43.12484224817439 28.26168110394605 0 0 1
676 1 4 -0.07550150923832877 42.615750903915 45.231653587277066 30.25131743903497 0 0 1
1371 2 4 -0.09445917051442515 41.336621118128946 41.47232623145075 26.153826140283027 0 0 1
1362 2 9 0.1364014107135029 42.55075406869133 43.89025309214632 63.98835684799187 0 0 0
692 1 6 0.1541383453376935 44.974217183464546 40.7155405386529 29.243206108780466 0 0 1
688 1 9 0.1360788814174022 45.220796906099295 43.78545313847473 29.79274047782205 0 0 1
698 1 1 0.1445031184733265 47.15622331181781 40.446104264644276 29.06959088364053 0 0 1
690 1 4 -0.06265040779496578 45.501492187659835 41.60249591480071 29.667861868870556 0 0 1
695 1 9 0.1456406006537114 46.89157643575945 41.84660421482173 28.18311189199103 0 0 1
699 1 6 0.1650448920230414 48.80403533075366 42.660674958485885 29.56759600712252 0 0 1
696 1 3 -0.04436844373780813 46.90184491298751 41.50943939299776 29.248787134533874 0 0 1
693 1 11 -0.3945350962427416 45.38951016596701 41.58936486381917 31.102932568936005 0 0 1
694 1 8 0.1503592012745646 44.76287439096128 40.855931817987035 31.23436206953832 0 0 1
697 1 4 -0.05088326951818556 47.927776250574794 42.15977167817787 30.14715555824323 0 0 1
700 1 11 -0.3874085654512861 48.577340137198945 41.173633228072845 30.9174779867707 0 0 1
701 1 7 0.1656551359036303 47.515781719413354 42.8786009179562 30.824468124134377 0 0 1
702 1 8 0.161552827258724 49.13690280856581 41.6051130007883 31.538476482428795 0 0 1
3017 14 17 -0.4103144268785787 50.32436065959445 44.57821450022317 29.427558231656228 0 0 1
2836 2 16 0.1522504595638655 51.43125982872755 40.47845236976869 30.464793866252585 0 0 1
1387 2 6 0.1557330540898842 46.050551194253686 40.367133404477016 26.01620427977855 0 0 1
1402 2 11 -0.3837080468869069 51.12645275701027 41.52729935613164 63.34539941934096 0 0 0
1404 2 8 0.1629149646740387 52.02530085274651 41.32838743895152 63.0697809877854 0 0 0
3012 14 14 -0.05016008373441067 51.05451861967836 45.53630880850214 29.453911588553805 0 0 1
2422 4 8 0.2086664535354468 46.02868341423765 44.857999971236936 32.26659243054483 0 0 0
2421 4 11 -0.3203166976168641 45.46032860620534 45.612811812309246 32.352506158366424 0 0 0
1401 2 6 0.1658107303851194 50.81412497997485 40.26648477925873 61.77082920478037 0 0 0
2825 2 15 -0.03317475317722274 51.82911582755031 38.74187969603044 31.67358519020925 0 0 1
3013 14 16 0.1542961927294686 52.658357410086964 44.38057423832872 28.60965355546201 0 0 1
2824 2 14 -0.0465784946230644 52.255287785746106 39.93666376051598 30.944917470418417 0 0 1
2835 2 17 -0.4132702338302811 53.357492629923925 40.40234743687102 31.306593363592302 0 0 1
3010 14 16 0.1729579316626548 52.54068597294458 43.288840607224685 30.77383044023835 0 0 1
3006 14 15 -0.04552019581609279 53.0188023364389 44.28261752740707 30.67254271969216 0 0 1
3014 14 16 0.1582054759449606 53.25002228597867 45.87386607330295 29.245477051717064 0 0 1
3009 14 15 -0.03745254777641638 52.5336381703179 45.074188864018126 29.414111691563008 0 0 1
3011 14 16 0.176262194102352 54.10152929968133 44.081387683458125 30.38226780782465 0 0 1
3005 14 15 -0.03096027710588867 52.80857124912585 45.038643431807934 31.934044576775605 0 0 1
188 1 6 0.1559664181011561 63.99577761542436 42.7630734355109 32.02530431278072 0 0 0
760 2 9 0.1334977554147156 62.56270112732621 43.75031309530041 27.316365927850818 0 0 0
756 2 1 0.1317122715432975 60.860845860289615 45.29726846119583 27.814899918628658 0 0 0
769 2 4 -0.07604079384499485 28.8129378913821 45.05958693704267 28.562224324578857 1 0 0
103 1 1 0.1294826410803078 32.49799329505839 45.35841521177435 31.849956532974502 1 0 0
770 2 1 0.1287498404560586 26.961707307094922 44.29641650978312 29.63173380363189 1 0 0
776 2 4 -0.08122750473169957 29.56041819560139 47.030636478370724 29.8536604440131 1 0 0
777 2 1 0.1258859280085565 28.566550580993276 47.201515341186365 27.89323746579789 1 0 0
775 2 3 -0.07306318443967218 28.54722679339452 46.592126974297884 28.79826041522607 1 0 0
774 2 9 0.1274909718767119 27.551561697208324 46.75604896131158 29.252970515364414 1 0 0
781 2 9 0.1278539952855892 29.892356891838936 48.95697411607753 28.929395747843287 1 0 0
786 2 11 -0.4056926504913324 27.901930127044423 50.14500086044141 29.953098442697627 1 0 0
782 2 3 -0.06305398057316752 29.709859479562944 48.54956918894305 29.97869382305032 1 0 0
783 2 4 -0.08304014317893951 28.612764694350947 49.23241113357268 30.813150522925024 1 0 0
764 2 6 0.1611458876903247 26.951355579035216 45.609061133664774 27.05914686068702 1 0 0
787 2 8 0.1431131196419575 27.31899504947136 50.59753969401816 30.534552191032397 1 0 0
778 2 6 0.152548892009907 30.58283317250738 46.66187760164597 29.51257541001853 1 0 0
785 2 6 0.1484065081150527 27.955875753422145 48.418992380388865 31.165868700949098 1 0 0
779 2 11 -0.4088310342706269 29.32019615319912 46.425011499884775 31.107705743465296 1 0 0
789 2 3 -0.06210448377379669 29.280270084991738 50.04974811541328 31.958229956145708 1 0 0
784 2 1 0.128012129456053 30.66044696388385 48.792323727999516 30.513761761633653 1 0 0
780 2 8 0.1330037073386951 30.157653972441864 46.0106050337327 31.259952330312156 1 0 0
791 2 1 0.1292581987620086 28.510558259828823 50.5330572107535 32.59123112816148 1 0 0
63 1 11 -0.403839825174387 29.77144496992645 49.2959605071058 26.372791359023985 1 0 0
792 2 6 0.1479114867295349 30.19807138513548 51.19325108593763 30.38735918438023 1 0 0
64 1 8 0.1394879479523442 30.491770166337268 49.08790491769323 63.86002952762337 1 0 -1
790 2 4 -0.09026150481094604 30.183273422192073 51.24060138425199 31.46939240579197 1 0 0
788 2 9 0.1341053091564519 29.77389340390224 49.40111489675631 32.61988226487418 1 0 0
85 1 8 0.1414097404484389 32.14775010970907 48.996027136323605 27.42972169625721 1 0 0
84 1 11 -0.3947651013746046 32.33267790405043 49.06553559041551 28.336334643713727 1 0 0
195 1 6 0.145456311526393 27.164205137325112 45.98922962848869 31.570116249411676 1 0 0
794 2 8 0.1216206085067847 32.17963801568176 51.29326991659389 31.467409746525973 1 0 0
793 2 11 -0.4222731303385155 31.454856221759805 51.23590084204473 32.12052816174842 1 0 0
61 1 1 0.1393211809260075 27.29472479632075 50.38973198725385 26.97770711184319 1 0 0
72 1 9 0.1383435918011902 31.30320755701068 51.38839869753817 28.24385767531775 1 0 0
81 1 4 -0.0664467547506134 33.6396629624726 49.569226372812125 28.33574481535552 1 0 0
83 1 6 0.1582669657201734 34.08417105614262 49.33817482268444 27.36017178545993 1 0 0
96 1 1 0.1215387165282997 33.470836103682444 46.77965077974368 30.52799218385552 1 0 0
90 1 6 0.1586396754343525 32.918196664206604 49.2855578969584 30.658574328967752 1 0 0
89 1 1 0.1322825451386128 34.59932807278923 47.7844713537373 29.042831831609607 1 0 0
87 1 3 -0.04997477163346276 34.53187336604947 48.83112835393149 29.345832627802185 1 0 0
88 1 4 -0.0768991388410078 33.945110144303776 48.88786028826152 30.793153360336056 1 0 0
86 1 9 0.1368600650825673 35.549839710331284 49.2820358420394 29.415680735964226 1 0 0
93 1 9 0.1245615353674487 34.835253237050644 47.17787558959604 31.41522873958438 1 0 0
94 1 3 -0.07330647942534785 33.831361485224534 47.45318930535926 31.293397372142575 1 0 0
657 1 6 0.1572888072877504 37.62156210075688 50.12062687209971 27.86989242813105 0 0 1
91 1 11 -0.4154154733832946 34.72086611820981 49.77502336678058 31.572972138248822 1 0 0
655 1 4 -0.08035772401509567 38.2465638130459 49.72370088791029 27.072633567620603 0 0 1
664 1 6 0.1539768885478432 37.56506169430164 47.756012611432794 28.48171722902002 0 0 1
666 1 8 0.1484483417047865 37.53956561803672 48.83607494985572 30.258181855833822 0 0 1
665 1 11 -0.3941810702549207 38.40426150050107 48.9974543754654 29.868551790002254 0 0 1
3105 20 17 -0.4043740802054111 37.49417629307548 46.60565275936054 32.47264772230044 0 0 0
92 1 8 0.1351427547236523 34.359912262577225 49.61242892959791 32.45497667703815 1 0 0
659 1 8 0.1447250916611021 36.587745532833914 49.28717608938592 26.288630034135416 0 0 1
658 1 11 -0.4038865094981596 37.43965448559847 48.995989344030235 26.12404882192141 0 0 1
662 1 4 -0.073609092444197 38.55978376590425 48.03666081998938 28.887839055191325 0 0 1
80 1 3 -0.03716517532889974 33.77973530062609 51.10482763516537 28.49936070385491 1 0 0
79 1 9 0.1385860465793188 33.21390417571517 51.45025751134875 29.428778229443285 1 0 0
670 1 1 0.135701832492268 38.60083510299916 46.387657010031816 30.302158754080384 0 0 1
677 1 1 0.1348413280422396 40.70310748110803 45.397454699408144 31.35370087171736 0 0 1
654 1 3 -0.0526650080703675 39.04640792820304 50.89425985434089 26.471145681475317 0 0 1
679 1 11 -0.4113721734801759 43.148801174642145 45.49618075081037 28.98469918748534 0 0 1
667 1 9 0.1381780986795871 38.855727336853406 46.06001245771899 28.664058364733865 0 0 1
668 1 3 -0.04713261893430631 39.11858459028889 46.74860923522652 29.37489819602692 0 0 1
661 1 3 -0.05147172903297076 39.178654224805065 48.688200651917484 27.684587070050362 0 0 1
663 1 1 0.1352813671142567 39.51110439715199 47.90323866816339 26.945248936178267 0 0 1
660 1 9 0.1352768432381592 40.15005536563908 49.11655150735838 27.977834304212426 0 0 1
1359 2 6 0.1625461839609431 41.393571833269235 46.08873011604017 26.591789915787533 0 0 1
672 1 11 -0.4008901695406539 41.151923036573194 47.82968606542441 30.380392181446435 0 0 1
673 1 8 0.1419820953106029 41.90952336940999 48.19453745432478 29.96488541614946 0 0 1
678 1 6 0.147819233196413 43.10185837692414 45.90604901909106 30.909561222888897 0 0 1
680 1 8 0.1383168143354124 43.63311056321776 46.27792133623641 29.15396055918017 0 0 1
1353 2 11 -0.4004496269344189 42.690921341338054 48.235040351293506 27.01334843836368 0 0 1
675 1 3 -0.0562440622871665 41.07987786623354 45.431938628195404 30.304925480540838 0 0 1
669 1 4 -0.07773816493003294 40.6330480566195 46.72005157117205 29.577044988542283 0 0 1
671 1 6 0.1461410277587851 41.06852356365122 46.865740659507566 28.63193068691571 0 0 1
1354 2 8 0.146683502549941 42.295440754001916 49.1189791018617 27.035201642923923 0 0 1
2414 4 11 -0.3106516647884515 44.22162486999093 48.14862210836557 31.72473645451163 0 0 0
3103 20 16 0.1601457452317043 38.89682364097784 48.51927425751119 32.37661731948738 0 0 0
1345 2 6 0.1785244174481196 44.918725210296174 47.48814938027422 27.684982020661824 0 0 1
1334 2 9 0.1493170354327424 48.859573765681574 44.68141357668321 27.399751586784536 0 0 1
1337 2 1 0.1399907832001194 47.81730912708481 45.106735052148665 63.94430693169655 0 0 0
3018 14 16 0.149366749640679 50.775779292515786 46.64846326996425 29.27937943034241 0 0 1
1347 2 8 0.1579815718000888 44.854774630920375 49.437063053813134 28.211986896941813 0 0 1
1331 2 6 0.1540061087052177 50.64134542387254 45.80638706601275 26.43803767397081 0 0 1
1335 2 3 -0.0518249542669118 48.47442981531416 45.58463850476744 26.73330116195309 0 0 1
1343 2 4 -0.04784304165824482 45.54609145131859 48.159457844326326 27.12162783438005 0 0 1
1339 2 11 -0.3933993359178732 47.01882584079803 46.09758814610078 28.594111065057177 0 0 1
1340 2 8 0.1435192307209124 47.631775432082335 45.58152608655621 29.08670571493355 0 0 1
1336 2 4 -0.05479887047860965 47.710245276490795 46.68452813912353 27.50294569047334 0 0 1
1338 2 6 0.1633034279271943 48.41711191133865 47.42424124957731 27.984324610578874 0 0 1
1346 2 11 -0.3744756267323985 45.740640040153224 49.242077822621766 27.98840731286707 0 0 1
2409 4 9 0.1669005292824636 46.39596380589641 48.450589090206165 30.977107038167688 0 0 0
2407 4 11 -0.3243186863323961 48.39245997413403 47.21008545991474 31.821211341671503 0 0 0
1342 2 3 -0.03102824774265051 46.79719060635337 47.503355089145074 26.606797522382774 0 0 1
2408 4 8 0.2235848859544629 48.784039389614136 46.55326351969833 32.43023876870869 0 0 0
2410 4 3 0.0379007632983952 46.54855036948055 48.79706392220669 32.05221356913863 0 0 0
2401 4 8 0.1538408039491375 51.99005019975141 48.830697326182424 31.870278198660703 0 0 0
2962 11 16 0.1626714772468352 53.99656742698912 46.76348265028117 63.86800096950064 0 0 0
3008 14 16 0.1620407516476983 52.7045391605752 46.164967809085695 31.765505794183348 0 0 1
2972 11 17 -0.4027844536255725 54.28030390820892 48.03614440694403 28.37209749131328 0 0 1
2973 11 16 0.155048615511588 53.36517619450938 49.77539648788171 28.12878368451166 0 0 1
2967 11 14 -0.04092164147190691 53.97058558413963 48.97412016672193 27.629299699960356 0 0 1
2371 4 6 0.140869031961508 56.10998641970184 50.43429791816554 31.803007116763602 0 0 0
2966 11 16 0.1853310877676907 56.26775641262019 47.78184029496193 26.499758813864975 0 0 1
2372 4 11 -0.4251073485874666 57.90775782653951 49.371299587452214 31.90985178924108 0 0 0
2963 11 16 0.1600310428145504 53.99289142227913 47.67348954697697 62.38733699038458 0 0 0
196 1 11 -0.401224550709812 63.34770677739121 45.03476596247634 31.552614265848447 0 0 0
763 2 1 0.1325164958447492 63.11862166253149 44.59601470583611 28.781665476859942 0 0 0
745 2 8 0.1369001582442452 58.53063975549401 50.25609268613805 27.549491219536357 0 0 0
758 2 11 -0.405211798292499 62.941366350282415 47.02455459911515 27.82711217199802 0 0 0
761 2 3 -0.04945179369958558 63.17251013652351 44.625451550251675 27.645720001500134 0 0 0
755 2 4 -0.08834857773623056 62.62675721973026 45.941848190739734 26.9900130448412 0 0 0
204 1 8 0.1406200888544451 62.75278279057519 47.903998944863446 30.991066543651144 0 0 0
203 1 11 -0.3981416023086747 63.623300559796924 48.049978523645095 31.39314957498216 0 0 0
746 2 9 0.1347773887092516 58.75859330702538 47.35205391316346 28.245412351933417 0 0 0
749 2 1 0.1284783120540826 60.44721241181792 47.27553211891222 29.05496904602258 0 0 0
747 2 3 -0.04799874751798583 59.81585573657629 47.6607254021289 28.191560657863924 0 0 0