LAMMPS data file via write_data, version 15 Sep 2022, timestep = 1200026

3596 atoms
17 atom types
3632 bonds
18 bond types
6624 angles
31 angle types
10296 dihedrals
34 dihedral types

26.724653288090625 63.66434671191291 xlo xhi
26.487152288090616 63.42684571191144 ylo yhi
26.54865428809062 63.488347711911004 zlo zhi

Masses

1 1.00794
2 1.00794
3 12.0107
4 12.0107
5 1.00794
6 1.00794
7 1.00794
8 1.00794
9 1.00794
10 15.9994
11 15.9994
12 15.9994
13 28.085501
14 12.0107
15 12.0107
16 1.00794
17 15.9994

Pair Coeffs # lj/cut/coul/cut/omp

1 0.038 2.44997
2 0.038 2.44997
3 0.039 3.87541
4 0.039 3.87541
5 0.038 2.44997
6 0.038 2.44997
7 0.038 2.44997
8 0.038 2.44997
9 0.038 2.44997
10 0.228 2.85978
11 0.228 2.85978
12 0.228 2.85978
13 0.04 4.05343
14 0.148 3.61705
15 0.039 3.87541
16 0.038 2.44997
17 0.228 2.85978

Bond Coeffs # harmonic/omp

1 340.618 1.105
2 340.618 1.105
3 322.716 1.526
4 340.618 1.105
5 340.618 1.105
6 340.618 1.105
7 384 1.42
8 540.634 0.96
9 540.634 0.96
10 222.4 1.382
11 540.634 0.96
12 392.8 1.6652
13 392.8 1.6652
14 283.092 1.52
15 340.618 1.105
16 615.322 1.23
17 322.716 1.526
18 340.618 1.105

Angle Coeffs # harmonic/omp

1 39.5 106.4
2 44.4 110
3 39.5 106.4
4 44.4 110
5 39.5 106.4
6 46.6 110.5
7 44.4 110
8 44.4 110
9 70 109.5
10 46.6 110.5
11 44.4 110
12 58.5 106
13 33.3 113.4
14 33.3 113.4
15 33.3 113.4
16 33.3 113.4
17 39.5 106.4
18 57 109.5
19 57 109.5
20 42.3 113.1
21 42.3 113.1
22 42.3 113.1
23 31.1 149.8
24 46.6 110.5
25 45 109.5
26 50 120
27 68 120
28 46.6 110.5
29 44.4 110
30 55 120
31 39.5 106.4

Dihedral Coeffs # harmonic/omp

1 1.4225 1 3
2 1.4225 1 3
3 1.4225 1 3
4 1.4225 1 3
5 1.4225 1 3
6 1.4225 1 3
7 1.4225 1 3
8 0.39 1 3
9 1.4225 1 3
10 1.4225 1 3
11 1.4225 1 3
12 1.4225 1 3
13 1 1 3
14 1 1 3
15 1 1 3
16 1 1 3
17 1 1 3
18 0.39 1 3
19 0.39 1 3
20 1.4225 1 3
21 1.4225 1 3
22 1.4225 1 3
23 1.4225 1 3
24 1 1 3
25 0.3 1 3
26 0.3 1 3
27 1.4225 1 3
28 1.4225 1 3
29 1.4225 1 3
30 0 1 0
31 0 1 0
32 1.4225 1 3
33 0 1 0
34 0 1 0

Atoms # full

2645 4 11 -0.3971531956088271 30.41599950677125 30.765992006707254 30.385134627886565 0 0 1
2644 4 6 0.1650988456731398 30.637398213955738 28.71309434852551 30.286343947042784 0 0 1
2646 4 8 0.1530136441719225 29.88456926128234 30.58644995966827 31.197551551772083 0 0 1
2642 4 4 -0.06570489082529962 30.289158112741305 29.556342149431728 29.67320326626488 0 0 1
2648 4 3 -0.04483946193660038 31.202563230344527 29.669709947867425 28.518119119537783 0 0 1
2641 4 3 -0.03601719563290023 28.808845470335637 29.303137501981944 29.3111456523168 0 0 1
2640 4 9 0.1370905255244942 28.790388709605256 28.31047634172856 28.854152549750133 0 0 1
2643 4 1 0.1380883886343316 28.28579124621162 29.157961559969763 30.22361517242435 0 0 1
2635 4 4 -0.08137657773822887 27.977947839184097 30.2543812333155 28.403429684970916 0 0 1
2638 4 11 -0.3950072387484835 27.961589074764028 31.559890198856493 28.975564474001075 0 0 1
2639 4 8 0.1525132067702654 27.721152563959798 32.246816530444114 28.312022857970277 0 0 1
2647 4 9 0.130654760627772 30.953430662923445 30.517635276925724 27.898285664602916 0 0 1
2650 4 1 0.1345739914724627 31.22220672419159 28.707228564821243 27.92457489184358 0 0 1
2637 4 6 0.1529587139656195 28.46257533636776 30.383074558291042 27.430117600233412 0 0 1
2651 4 6 0.1593993023706596 32.73657964317856 30.729389113851454 29.730203091855465 0 0 1
2649 4 4 -0.07178207078117887 32.70472226882126 29.91898756303449 28.948636923608536 0 0 1
1558 3 11 -0.3850291332053414 27.72505801713139 27.246248228995782 31.720654578140582 0 0 0
1559 3 8 0.1598587490025799 26.793399681009774 27.108558123887903 31.730527123502664 0 0 0
1546 3 9 0.1357638940598817 31.911221320308513 26.784262817136717 30.426117156504425 0 0 0
1553 3 9 0.1356382329445892 30.223097233933114 27.58231198625091 32.313362665516145 0 0 0
1554 3 3 -0.03973129222382926 29.891398075702195 26.50877884959856 32.32856289676799 0 0 0
2652 4 11 -0.3984590011116934 33.172731074452074 28.744573484173177 29.611667153526952 0 0 1
2654 4 9 0.1309702539726409 33.182427898924985 31.13921511826001 27.29570699141346 0 0 1
2653 4 8 0.1522925120514545 34.065240215599104 28.91332416141201 29.984967054587294 0 0 1
2656 4 4 -0.0732236233810945 35.10160511836278 30.49087276868362 27.967049860690597 0 0 1
2659 4 11 -0.395529688061086 35.81939457989187 29.35059420174789 28.309145165976208 0 0 1
1528 3 1 0.1361308996416607 37.384511539595486 28.13954947879846 29.752802626041337 0 0 0
2660 4 8 0.1518184753031318 36.38613492916557 29.139101791773 27.561299664935177 0 0 1
2661 4 9 0.1326890491384299 34.89321651499369 31.19270850800975 29.942045068689357 0 0 1
2666 4 11 -0.3895460238052615 37.67710829620584 31.19453975455546 29.794778395518467 0 0 1
2662 4 3 -0.0516848268088112 35.29934550189481 31.609754105261622 28.989745387242284 0 0 1
2667 4 8 0.1608661744634311 38.436342289428424 31.631811700888065 30.164463233765332 0 0 1
2655 4 3 -0.04766461612980227 33.60622237577359 30.23711744793859 27.71098894705691 0 0 1
2658 4 6 0.1552261151250846 35.58952837383843 30.872093752721206 27.045127558872693 0 0 1
1515 3 6 0.1523219531091789 39.00555337694771 28.502422843000282 27.848605897044642 0 0 0
2657 4 1 0.1363597937766841 33.5211275806005 29.488511561771666 26.948134134176403 0 0 1
2663 4 4 -0.06550779716817534 36.664338830072836 32.204210400864454 29.501144625896174 0 0 1
2664 4 1 0.1321476317332322 34.71553994116129 32.494712912964864 28.56589332121315 0 0 1
2671 4 1 0.1358214319337803 36.33735969715582 32.64319230126214 31.65893410877152 0 0 1
1542 3 1 0.1368261949755113 33.3166006581234 26.65486780196815 28.742845980741762 0 0 0
1526 3 3 -0.04795060672476309 37.956405992360914 27.116179872113822 29.733199809229866 0 0 0
1535 3 1 0.134727463709273 35.478783377040486 27.103083877148503 29.36086720440366 0 0 0
1525 3 9 0.1368989130885643 38.06529047908505 26.865378222825466 28.685123499487453 0 0 0
1518 3 9 0.1272157689995594 39.77244713418743 29.22891867158251 30.002435797258013 0 0 0
1519 3 3 -0.05131615136465478 40.220969202476454 28.287068988900995 29.678119431696665 0 0 0
1521 3 1 0.1308942587918801 41.29609957598103 28.168170175408516 29.975705794676827 0 0 0
1508 3 6 0.1528522365914027 42.40579408409759 29.866936700417906 28.895298655811285 0 0 0
1506 3 4 -0.08618978450536832 42.1549543974195 29.897753137302193 27.836595221633914 0 0 0
1514 3 1 0.127882287369937 40.199953883530924 30.60374741159343 28.135382214690726 0 0 0
1513 3 4 -0.09358600409188378 40.084473382779464 28.35801738764778 28.10620024110874 0 0 0
1512 3 3 -0.05068971759315494 40.68021928144502 29.75479775771603 27.63590186125905 0 0 0
1516 3 11 -0.4083206619085105 40.658051635345636 27.291898301956632 27.40889387687442 0 0 0
1505 3 3 -0.0471735436886459 42.57442877346335 31.27049850475252 27.252296002585624 0 0 0
1495 3 11 -0.4084171473185574 43.3418529147516 31.79537068757734 30.332996548630682 0 0 0
1509 3 11 -0.4027007698368175 42.83766845487151 28.867687329956162 27.07690224264211 0 0 0
1498 3 3 -0.05713360087934044 44.838946721318635 31.227052027861983 28.461585374954804 0 0 0
2153 4 1 0.1381740655720818 45.097768510154296 26.80258594426897 28.089837632035007 0 1 0
1497 3 9 0.131749658791747 44.754472683509455 30.16141976323262 28.73585747658391 0 0 0
1499 3 4 -0.08991967221036701 44.04355954088253 31.578721071748756 27.243938008569504 0 0 0
1511 3 9 0.1269975414670922 40.62864314882724 29.946289997038804 63.46408070004816 0 0 -1
1507 3 1 0.1388989800755459 42.175147296631586 32.102944358459666 27.90181161571758 0 0 0
1492 3 4 -0.07705166703939043 44.63006304577219 32.03907787749411 29.757593897371084 0 0 0
1496 3 8 0.1424429990198635 43.21294011371141 32.35021190352756 31.128531164062434 0 0 0
1522 3 6 0.1532784250199128 39.397442452730175 27.331162565384535 31.45657978236843 0 0 0
1520 3 4 -0.07595006839218332 39.41558126754025 27.209767131771983 30.314460163787928 0 0 0
2150 4 9 0.1418282277595161 44.09314741408792 26.91045049626046 26.688098806750077 0 1 0
1490 3 9 0.1340279954045063 45.79934818507233 30.49841541524325 30.789046000269696 0 0 0
1500 3 1 0.1392893255722633 45.918432598009616 31.42025296698711 28.223218753562342 0 0 0
2146 4 1 0.1367637375373133 46.46575124252777 28.61052241376247 27.362895152347267 0 1 0
1491 3 3 -0.03834960056896802 45.81882966509201 31.581792352079347 30.634882588723908 0 0 0
1481 3 11 -0.4032793094097497 48.733161094674145 31.068901189976717 30.965420571153942 0 0 0
1482 3 8 0.1367897071791864 48.720991584636884 30.159674912112834 31.242837316820047 0 0 0
1493 3 1 0.142253249708696 46.78847113551417 31.869158571538645 30.097393370560024 0 0 0
2139 4 1 0.1408045044212486 48.15952434864346 30.260388696962806 27.358725833774045 0 1 0
2129 4 9 0.1382744539688739 50.490048216652625 30.00490486143568 27.303485109590994 0 1 0
1478 3 4 -0.06484794917973036 48.587042656057946 31.682703225066632 32.22325897177063 0 0 0
1485 3 4 -0.08244115535127022 45.902450826751675 32.12569464488174 32.05399572849415 0 0 0
2128 4 8 0.1487409837592249 51.22096161593085 32.13376662604549 27.611024334916227 0 1 0
1474 3 11 -0.3960339947598068 51.19732658364808 32.20129613924645 32.11288928014677 0 0 0
1475 3 8 0.1522954925562471 51.91996232825902 32.08987148652865 31.484384557422665 0 0 0
2122 4 9 0.1407402353757423 53.19926091760064 30.691932214268505 27.604478590462346 0 1 0
2127 4 11 -0.3992221176060128 51.511374260261846 32.43207306251023 26.776254514286514 0 1 0
2633 4 9 0.1309485719072611 63.47950564808933 28.599448333308523 28.112362195196646 -1 0 1
2634 4 3 -0.04846923982583318 63.47389429327254 29.707522482936195 28.387953502022267 -1 0 1
2636 4 1 0.1385204890214354 63.072790719192085 29.617535542651837 29.426874390873557 -1 0 1
2632 4 8 0.1547112470836384 61.632024723972606 31.627235468514918 28.568778660919772 -1 0 1
2631 4 11 -0.4048792785335624 62.189714648842426 31.719527289415566 27.806563304582955 -1 0 1
2628 4 4 -0.07958683817070927 62.475728380333294 30.417920589778003 27.403613987337277 -1 0 1
2630 4 6 0.1592825189421148 61.55547320157525 29.888361304497817 27.35405834287 -1 0 1
2685 4 1 0.1389260332585995 31.373402648981294 33.36329483050204 30.968989755073796 0 0 1
2684 4 4 -0.0735846158501946 30.49489936842472 35.39015366726461 31.39529785823071 0 0 1
2683 4 3 -0.04926140461746609 31.639142217767887 34.32135244693193 31.49490922608519 0 0 1
2686 4 6 0.1565511573771594 30.44168256249469 35.748119102744326 30.369896348569657 0 0 1
1901 3 11 -0.4152523533034003 29.18569771575597 35.786512593612215 27.822774965005856 0 0 1
1900 3 6 0.1456309732426217 30.566346558871807 37.27076992172407 27.859806661512554 0 0 1
1902 3 8 0.1456945007692853 29.619279726856668 35.16549489780425 27.267863253852077 0 0 1
1898 3 4 -0.08378249579462949 29.59852256981957 37.04947972878601 27.37987770065039 0 0 1
2692 4 1 0.1298038720429333 29.296032324796663 33.668197127168796 31.017005539711082 0 0 1
2690 4 3 -0.05703024462950937 29.243033761322785 34.5551913948416 31.6763947013913 0 0 1
1907 3 6 0.1528319541217102 28.123375088081644 37.61628880877341 29.823692515499832 0 0 1
2687 4 11 -0.3927056391156283 30.66293396437027 36.54348454420179 32.2085629593184 0 0 1
1903 3 9 0.1368490087829726 27.702687286825103 37.84765897342261 27.308597261823675 0 0 1
2693 4 6 0.1390148659678631 28.126675529609507 35.49400933296039 30.11241486117537 0 0 1
2691 4 4 -0.0755919825202937 27.984593137838015 35.318846756490586 31.204730879019063 0 0 1
1913 3 1 0.1285019550086273 30.383442037896167 38.40903084839965 29.698109988273735 0 0 1
2694 4 11 -0.4046917876081043 27.691765178768627 36.43003181685313 31.95988931233055 0 0 1
1904 3 3 -0.05134874351531876 28.617755593935545 38.14760631656483 27.764917974472127 0 0 1
1914 3 6 0.1584683793744173 29.376723351269526 38.59043316585547 31.77308242827904 0 0 1
2699 4 1 0.1269613259120075 27.162237433145254 33.26043706620322 30.885398711312597 0 0 1
1905 3 4 -0.08833751988624639 28.326255488858894 38.52068258246663 29.227732457616952 0 0 1
2697 4 3 -0.05842974843649457 26.860535721598918 34.25006003634796 31.273462515987664 0 0 1
2681 4 8 0.153779546439134 32.68198008913789 36.4450828408759 29.934965904716044 0 0 1
2056 3 8 0.1581650943216397 32.62929096388075 38.6473137626363 29.144155254306767 0 0 1
2682 4 9 0.1343878818282015 31.725943173627098 33.938752080419796 32.55727071092412 0 0 1
2689 4 9 0.1258686567008561 29.1098352513608 34.19066101831004 32.67976443768721 0 0 1
2688 4 8 0.151932150673473 31.439654125199123 37.02305123530456 31.941296563151386 0 0 1
2665 4 6 0.1546020992013095 37.028986861834326 32.7680533589092 28.600640393775965 0 0 1
2678 4 1 0.1306360197860855 33.562180700699415 33.17249898782653 30.270012533872233 0 0 1
2669 4 3 -0.0485468134274184 36.52205499388542 33.163217917657725 30.772388666418465 0 0 1
2680 4 11 -0.3890192484067048 32.96336093009404 35.55058248362594 29.889864852317324 0 0 1
2677 4 4 -0.07476958203584083 33.01231685459485 34.95969620204603 31.12906622307537 0 0 1
2679 4 6 0.1590214933359154 33.289205814474215 35.631276045518405 31.949796770021777 0 0 1
2675 4 9 0.1299615774165288 34.055364947708135 33.20754341802629 31.975853833667312 0 0 1
2668 4 9 0.1439881012317107 37.55313981212545 33.61404681581659 30.910206559538146 0 0 1
2676 4 3 -0.05329912963369832 33.984712302882606 33.80255550017695 31.035560305528318 0 0 1
2670 4 4 -0.07147975400407858 35.44369360824662 34.31777313351085 30.739576254575905 0 0 1
2672 4 6 0.16398272760978 35.484841066204766 34.936460614470676 29.836437560160196 0 0 1
2063 3 8 0.1583727917202497 37.19717352261937 37.30935870888099 30.194058495902464 0 0 1
2062 3 11 -0.3866501348982171 36.457358724442 37.57236835175993 29.627361387414606 0 0 1
2673 4 11 -0.3916137144683144 35.58875898715832 35.21329998756392 31.879785697295215 0 0 1
2674 4 8 0.1426886659009458 36.47189787390743 35.51223502408197 31.90038324629607 0 0 1
2054 3 6 0.1688897932417763 34.38078474209189 38.28162740760348 27.880540225784266 0 0 1
2061 3 6 0.1665774413042611 35.4123857768029 38.787318261375574 30.81668490413162 0 0 1
1501 3 6 0.1507773282959092 44.12366237490785 32.67375280826425 26.94318071866458 0 0 0
2069 3 11 -0.4007263296296368 39.156041835227356 38.73844931212616 29.265276106985816 0 0 1
2070 3 8 0.1542732360670096 39.46762767412356 38.23117500509399 30.011993540653314 0 0 1
2490 4 6 0.159368131351406 44.00776961859998 37.07019329434585 31.671969252245603 0 0 0
1494 3 6 0.155112033899207 44.8952101005479 33.12152268999928 29.56404385616204 0 0 0
2483 4 6 0.1588471606478676 44.54294178582616 38.45121971330426 30.149691837611833 0 0 0
2488 4 4 -0.06747659224210401 43.76967025961136 37.70998822864584 32.562948375625346 0 0 0
2491 4 11 -0.3954038470390586 42.42296131702364 38.07795282232435 32.552754985140595 0 0 0
1487 3 6 0.1532645838250655 45.946529059089805 33.22867088850991 32.0899307905824 0 0 0
1473 3 6 0.1647256404603263 50.30781156197207 32.858092969926496 30.42200931966372 0 0 0
2986 12 16 0.158651573782555 45.91997344767587 34.80343006421582 28.438099261582032 0 0 0
1476 3 9 0.1344221801538966 48.38124399973245 33.72961304712853 31.496489216185424 0 0 0
2977 12 16 0.1645025685266133 48.02922142917653 36.17145715605281 27.856891933583924 0 0 0
2469 4 6 0.1642873788306558 49.72800610121216 38.355936256381824 30.551748598340133 0 0 0
2974 12 14 -0.0363894128446216 46.66576097104246 34.54599859060006 27.65369749728051 0 0 0
1469 3 9 0.13540101610429 50.16506590468718 35.36289753997435 31.258157834508456 0 0 0
1471 3 4 -0.06923059801293996 50.39294045673389 33.207957917179606 31.500226688624146 0 0 0
2985 12 17 -0.4022418172108277 47.23189851110401 33.46048325985064 27.632522219188356 0 0 0
1477 3 3 -0.04063991226505759 49.0709762041584 33.17346214948687 32.1243863346441 0 0 0
2489 4 1 0.1377195680439142 45.65398373828531 38.45392664216787 32.35601217402409 0 0 0
2975 12 15 -0.02408389291420343 47.5649270596125 35.62937000957054 27.09735987879873 0 0 0
2470 4 11 -0.3809680215290712 49.40098476146865 38.268959328736656 28.507555429853195 0 0 0
1470 3 3 -0.03853338481213225 50.8585179140063 34.654786335643294 31.633763400215884 0 0 0
2476 4 6 0.150490598134417 47.24069985067406 38.39105723218741 31.035643499501028 0 0 0
2477 4 11 -0.3999977073990919 46.74465918045502 38.13178443724663 29.052886841059703 0 0 0
2478 4 8 0.1442215410995191 46.64718319064944 38.67450163716434 28.31432457061407 0 0 0
2118 4 1 0.1394058397046636 54.37980287915091 32.88066275087757 28.058847219950234 0 1 0
2107 4 9 0.154404058127964 55.214502327210276 34.84726880185373 28.61858793324896 0 1 0
2108 4 3 -0.04233568657145614 55.20705053543138 35.243416265935 27.618830309773653 0 1 0
1468 3 8 0.1461823374844635 52.28869376048044 33.79631346110751 29.607606136317806 0 0 0
1467 3 11 -0.3928425564853175 52.32893655959363 34.708363747777824 29.63437248255711 0 0 0
1459 3 6 0.1595899198745775 54.29319609930806 36.95066399686664 29.984838680200074 0 0 0
1462 3 9 0.1341928769650348 51.983095636443984 37.008009731198236 31.08534813665885 0 0 0
1464 3 4 -0.0726413148164532 52.23547190622793 34.955243649942645 31.059179270262064 0 0 0
1457 3 4 -0.07345828954884742 54.148345862583966 36.807065602373804 31.05808463467036 0 0 0
1463 3 3 -0.03945945655430838 52.74562503239683 36.34502231375126 31.49095125746462 0 0 0
1456 3 3 -0.04880459901767259 54.34556117971607 38.17368967464658 31.86196968148934 0 0 0
1466 3 6 0.1641704961573261 52.875594384401005 34.17928825253265 31.604347263234775 0 0 0
1460 3 11 -0.399965310098866 55.02227815421284 35.84143551805056 31.634433910089903 0 0 0
2111 4 2 0.1532364703624611 54.30658053474133 35.840951814892264 27.44317552895063 0 1 0
1452 3 6 0.1669624734071996 56.481111351171634 37.90929126240964 32.06078150821437 0 0 0
2110 4 1 0.1579247730081627 56.02896664710758 35.92885479124807 27.516023190487232 0 1 0
1450 3 4 -0.06554425680802944 55.74960608431958 38.628288401143585 31.637591724063363 0 0 0
2116 4 3 -0.02569863835116548 54.324826566194304 33.07890726962572 26.981725454605957 0 1 0
2115 4 9 0.1448769750118246 53.45971571622482 33.75101223476215 26.760138312380715 0 1 0
1465 3 1 0.1390998614356525 52.719588587958505 36.429907238919185 32.58915422788945 0 0 0
1461 3 8 0.1495049775760694 54.86940254574211 35.8553471357072 32.59702146217695 0 0 0
2112 4 6 0.1699675587808928 56.333028803600826 33.5085662845068 26.99575346582083 0 1 0
2109 4 4 -0.04999849681586688 55.42937433480902 34.04081535575295 26.736729891702467 0 1 0
2696 4 9 0.1289793404473497 63.59498084170427 33.98433676980277 32.26353130215103 -1 0 1
2716 4 8 0.1380179273270736 59.23793571242305 32.85872077545107 26.92719226257689 -1 0 1
2701 4 11 -0.3970641428290707 61.6798767021737 33.3489601215535 31.01216616164977 -1 0 1
2702 4 8 0.1370246923114344 60.86489968601593 33.510335550222834 31.44052890236894 -1 0 1
2700 4 6 0.1636491603438317 62.16056143708518 35.47446745725756 31.197025463716077 -1 0 1
2698 4 4 -0.0745221675843325 62.42955676870987 34.5469564900234 30.71600676047008 -1 0 1
2709 4 8 0.1473705837762138 59.40932529067983 35.455187836765354 29.649864312801505 -1 0 1
2704 4 3 -0.04238189632541001 62.36322433124927 34.70610023192779 29.197244285356643 -1 0 1
2708 4 11 -0.3974444233354704 60.2672541588297 35.79702557183345 29.40141780615689 -1 0 1
2706 4 1 0.1313578617387703 62.89970556510433 35.67073860777332 28.941445918453045 -1 0 1
2703 4 9 0.1378113447740078 62.80012928020953 33.83920696443441 28.625735166796353 -1 0 1
2707 4 6 0.1648158753521303 60.438541795496064 33.775716978818366 29.009907611514162 -1 0 1
2705 4 4 -0.06589579549306185 60.91061250757848 34.728849970241384 28.68983156026998 -1 0 1
2819 1 16 0.1536312286279255 61.26762935977594 37.947864562889094 30.80594515131367 0 1 1
2711 4 3 -0.03927411681295095 60.88197536418208 34.92459134169647 27.18063001657408 -1 0 1
2818 1 16 0.1664876331249684 59.62902118643669 38.5674599244512 31.337889302253377 0 1 1
2715 4 11 -0.4035064696769364 58.7657643887527 33.676997240258586 27.15052948939607 -1 0 1
2714 4 6 0.168360907505723 58.838763033546414 35.71532740033573 26.95231120679637 -1 0 1
2823 1 16 0.1556207218023191 59.231624941412065 38.2633150743703 28.868749916926816 0 1 1
2814 1 15 -0.02641232415517691 60.577367097871246 38.77870223826465 30.736420558092192 0 1 1
2713 4 1 0.1389941476450258 61.37101069695055 35.84462617391194 26.941242745849255 -1 0 1
2710 4 9 0.1322634178566906 61.403513437347826 34.12989995732254 26.735514007544786 -1 0 1
2712 4 4 -0.06547542200294865 59.37678189485794 34.82186634083003 26.64236287121342 -1 0 1
1906 3 1 0.1326571455625896 28.857153349012528 39.06928202131412 27.22628477544652 0 0 1
1911 3 3 -0.05495731050068314 29.556743461768015 39.16228786177274 29.804155031135288 0 0 1
1920 3 1 0.1341297458216749 31.60471061474319 39.606429860743894 31.3280133111296 0 0 1
1918 3 3 -0.0454991360404865 30.76142138833074 40.27213188207901 31.621679497625756 0 0 1
1912 3 4 -0.06953214108036637 29.453177855312028 39.533285864038014 31.291331789026344 0 0 1
1917 3 9 0.1314970313756283 30.99295665418253 41.16510812699936 30.940566828867446 0 0 1
1915 3 11 -0.3865662679542526 28.281559923551246 40.309086994327615 31.565231250046807 0 0 1
1910 3 9 0.1278715003453321 29.780550721534777 40.02287257883746 29.102010917671713 0 0 1
2036 3 9 0.1367317311823462 30.77278193670276 41.89772777183797 28.492895803667736 0 0 1
2032 3 1 0.1393688327288746 28.5807864050399 41.95288177684459 29.722458626454312 0 0 1
2025 3 1 0.132385260653717 28.60970336579738 42.68582447265748 31.80124022666581 0 0 1
2030 3 3 -0.04492644624119313 28.318871412790838 42.89247385909454 29.200668223391865 0 0 1
2023 3 3 -0.04754124111177199 28.313900370869234 43.713555040375056 31.5404568537046 0 0 1
2029 3 9 0.1372216134649388 27.198361125497286 42.956967060456456 29.230952266475274 0 0 1
2037 3 3 -0.047214104434389 30.53284713446763 42.77109233260821 27.894175530871614 0 0 1
2031 3 4 -0.07244149422250001 28.954725206852657 42.9202796655797 27.824461826094403 0 0 1
2033 3 6 0.1604094164622235 28.57998667227632 42.058900472741335 27.22256443665884 0 0 1
2039 3 1 0.1362891652303804 31.041488842726654 43.56567550824496 28.4362183762569 0 0 1
2024 3 4 -0.07077142465539649 28.835103165853027 44.02083358526862 30.17868626541627 0 0 1
1908 3 11 -0.4049540794552488 27.32709539747417 39.50517059294479 29.243032002253123 0 0 1
2022 3 9 0.1360528482929482 27.195789283988148 43.689434772814444 31.525372613402773 0 0 1
2026 3 6 0.1565228180632733 29.96906227738347 43.9632573355441 30.232328288188086 0 0 1
2034 3 11 -0.3923018727680893 28.582582060670514 44.12477982072363 27.099603745887524 0 0 1
1916 3 8 0.1575214320965627 28.089764832152362 40.0326149835812 32.4644316984814 0 0 1
2035 3 8 0.1533709971060487 27.69002154478488 44.103273942871624 27.204407460063194 0 0 1
2038 3 4 -0.06996793163911613 31.329106612063697 42.62464108281411 26.591014937203365 0 0 1
2053 3 1 0.14277072411623 32.64839678139349 39.826677997034295 27.098205844302456 0 0 1
2044 3 3 -0.04898951126965212 32.86025642560897 42.76349373443077 26.860231191791737 0 0 1
1924 3 9 0.1368100206390395 32.24385829840599 42.23532711804133 32.66145049335314 0 0 1
2017 3 4 -0.06912195941360627 28.719805624997463 44.826155013146504 32.476239112185226 0 0 1
2020 3 11 -0.3962563580471744 30.18101253513634 44.884299325524 32.434048914346256 0 0 1
2059 3 4 -0.06211165243317146 36.142739807482556 38.89251180709797 30.026055928459062 0 0 1
2048 3 11 -0.3984885913478635 33.048887546795186 41.7992355282577 29.120547814554783 0 0 1
2049 3 8 0.1348500077141662 33.418465310524574 42.51589546041794 29.591596567994106 0 0 1
2043 3 9 0.1379392323997522 33.14404546072669 43.7367098075578 27.26661726444354 0 0 1
2064 3 9 0.1373930295060523 37.681883390805424 39.173833879194646 31.619755039754892 0 0 1
2055 3 11 -0.3870496021876873 33.38392967953957 39.11641066949035 29.449266515668622 0 0 1
2065 3 3 -0.05438848077334268 37.30605071801233 39.60999499784925 30.670145636887973 0 0 1
2052 3 4 -0.06403692260645971 34.268446901920214 39.27953360186204 28.32906849885718 0 0 1
2067 3 1 0.1361891745629273 36.898109311542356 40.609753485882635 30.934194279908596 0 0 1
2057 3 9 0.145722765022245 35.539001600533 40.801872802107084 29.393337802115887 0 0 1
2076 3 11 -0.4105786382593644 38.000958276431795 42.50412655894429 31.485601823523652 0 0 1
2058 3 3 -0.03014059992597284 35.60782346807605 39.74862532323176 28.914008822599914 0 0 1
2047 3 6 0.1543648557123266 34.62076971905478 42.01370930347936 27.873224042219974 0 0 1
2045 3 4 -0.07836531359850296 33.58510386514647 41.73974693938095 27.788006600562827 0 0 1
2060 3 1 0.139445248178512 36.32902798892559 39.8260252834215 28.110012661518006 0 0 1
2068 3 6 0.1509646107934444 38.06114038142495 40.41697775162696 28.795634976841484 0 0 1
2051 3 3 -0.04165106360639326 33.63263480199023 40.258328543794754 27.278759551125248 0 0 1
2066 3 4 -0.07345363754649226 38.44890414823157 39.86985139194753 29.65169031039786 0 0 1
2075 3 6 0.1508929839843781 38.66350079312202 42.64997666104631 29.498592159687817 0 0 1
2077 3 8 0.1316780786254979 38.18001710965781 41.923846013038066 32.279716368021774 0 0 1
1927 3 1 0.1385490923577345 33.15738714117879 40.66519812912395 32.71448890893566 0 0 1
2808 4 8 0.1657486425866926 37.275173198280186 42.11239840326225 26.807550837943936 0 0 1
2487 4 3 -0.04608277700469432 44.67908680497892 38.87739089794856 32.224169528834956 0 0 0
2073 3 4 -0.07699495080743846 39.04697626246427 42.30953437950922 30.535946056276355 0 0 1
2072 3 3 -0.05941275790542072 39.48810407912655 40.87613722692383 30.34561509734403 0 0 1
2074 3 1 0.128655029333077 40.00744483323368 40.55176946941961 31.234329047216104 0 0 1
2484 4 11 -0.4001463077995863 43.35437763494268 40.00732561039099 30.481020153489112 0 0 0
2071 3 9 0.1388507019250891 40.327797133660276 40.94469113920026 29.634649121222 0 0 1
2079 3 3 -0.0531856718906018 40.239656960329064 43.16362530129465 30.97422917144352 0 0 1
2081 3 1 0.1352908779652386 39.78528258362581 44.19045994810155 31.114894320145954 0 0 1
2083 3 11 -0.4109174490137482 42.33109990609444 44.12891374518139 30.799952365866822 0 0 1
2080 3 4 -0.07265882906553084 41.50276850376784 43.21458188723324 30.117600985701003 0 0 1
2082 3 6 0.1492547330092276 41.978401481462356 42.25557128786501 30.21223535530413 0 0 1
2086 3 3 -0.04881184576367831 41.36910431015354 43.5445814627853 28.618207672404452 0 0 1
2088 3 1 0.1397201979066688 42.40560464766292 43.53161739472413 28.24727630118234 0 0 1
2085 3 9 0.1337505481641954 40.91054964571458 42.727841556281334 28.13813429340631 0 0 1
2485 4 8 0.142873215664362 43.32446310488244 40.739703215088575 31.112397408763716 0 0 0
2084 3 8 0.1340762149553411 42.61000709524028 43.74355171362102 31.66651856887811 0 0 1
2481 4 4 -0.08146438035973125 44.608582780259496 39.34611112613121 30.756253296127323 0 0 0
841 2 6 0.1596303164270114 44.847712467763074 44.66730769070071 28.07037413059942 0 0 0
842 2 11 -0.387854180251875 44.78482748393509 43.086024115160726 29.412637474406047 0 0 0
2090 3 11 -0.3888620558799625 40.753363463301014 44.92019117360731 26.755140030657152 0 0 1
2091 3 8 0.1476381331226789 41.669993678134915 44.98132581322301 63.36086390341529 0 0 0
2087 3 4 -0.07792989773634074 40.743907996515176 44.88182528120262 28.202481064563518 0 0 1
2089 3 6 0.1636709390751413 39.6502333423554 44.97855111078056 28.574633434688348 0 0 1
2078 3 9 0.1327260053068124 40.639103266990446 42.94267670302439 32.02446091643093 0 0 1
843 2 8 0.1605186329283372 44.938317806119976 42.82374795346223 30.326003501994677 0 0 0
2467 4 4 -0.05351723524973856 49.5589120104829 39.02437915669764 29.64488461205834 0 0 0
2471 4 8 0.1581538366844533 49.07408023729988 38.871690505863334 27.860254972533884 0 0 0
839 2 4 -0.07260419302286658 45.38945364521536 44.31111488509859 28.963158081774488 0 0 0
850 2 8 0.1628472899907996 45.581524190560046 41.88283697157105 27.279367215076753 0 0 0
2474 4 4 -0.0741303404908652 47.001320444678875 39.09546998793147 30.15820278606967 0 0 0
2473 4 3 -0.03395534598624506 48.32140731445663 39.858089583607764 29.983099763767587 0 0 0
2480 4 3 -0.05382222198163417 45.88943575944735 40.141070731123406 30.37995247875987 0 0 0
2472 4 9 0.1391206594126819 48.11836933504583 40.563786124213124 29.236502469600453 0 0 0
2479 4 9 0.1369753828320982 45.810126619250745 40.66706568279131 29.402660773253146 0 0 0
849 2 11 -0.3872426984646475 46.46838746865075 41.86899808738656 27.68098546655625 0 0 0
846 2 4 -0.06821253998836641 47.10375344288289 43.10725017362526 27.453528936498387 0 0 0
845 2 3 -0.04706813099677348 46.90097095906425 44.08248340005841 28.626857309475312 0 0 0
851 2 9 0.1336404395678031 49.14987202021907 42.42785210708423 27.969822569780195 0 0 0
844 2 9 0.1368444289775878 47.4669198058088 43.73209665532572 29.51896388002644 0 0 0
3477 1 5 0.3199411709656776 48.93702117942702 43.81436410636873 31.24139763581616 0 0 0
3145 1 12 -0.259733969208931 48.8932145159834 42.853943067079584 31.318860659976266 0 0 0
2475 4 1 0.1425499929150235 48.56350585709747 40.42430277774657 30.905807097480945 0 0 0
2462 4 6 0.1517300349054219 50.43627605859615 41.21731645777762 31.013091683852352 0 0 0
2482 4 1 0.1325348831128974 46.1384599994238 40.977233142962305 31.093406977322225 0 0 0
2451 4 9 0.1280332408197451 50.6197154350929 42.99270175940612 29.8578373946854 0 0 0
2468 4 1 0.1480398660888421 50.70879984919942 40.5968437156389 28.653886906782695 0 0 0
852 2 3 -0.04487926795830965 48.61310795329227 42.86667832724993 27.092163826818272 0 0 0
2466 4 3 -0.04322502347804041 50.829513534233556 39.894843489412665 29.43165122543718 0 0 0
854 2 1 0.1367402786040328 49.12308855698873 43.77486470837052 26.675769717811637 0 0 0
2463 4 11 -0.400177765260801 51.3239424170599 39.427534082161 31.678428828341765 0 0 0
2460 4 4 -0.06970159215765376 51.206870508142245 40.51972612107596 30.744005072927127 0 0 0
2464 4 8 0.1440706689004866 51.385769100571 39.75781396487686 32.54108350829789 0 0 0