LAMMPS data file via write_data, version 15 Sep 2022, timestep = 120015

3596 atoms
17 atom types
3632 bonds
18 bond types
6624 angles
31 angle types

27.82711601812184 62.56188398187567 xlo xhi
27.589615018121872 62.32438298187567 ylo yhi
27.651117018121877 62.38588498187568 zlo zhi

Masses

1 1.00794
2 1.00794
3 12.0107
4 12.0107
5 1.00794
6 1.00794
7 1.00794
8 1.00794
9 1.00794
10 15.9994
11 15.9994
12 15.9994
13 28.085501
14 12.0107
15 12.0107
16 1.00794
17 15.9994

Pair Coeffs # lj/cut/coul/cut/omp

1 0.038 2.44997
2 0.038 2.44997
3 0.039 3.87541
4 0.039 3.87541
5 0.038 2.44997
6 0.038 2.44997
7 0.038 2.44997
8 0.038 2.44997
9 0.038 2.44997
10 0.228 2.85978
11 0.228 2.85978
12 0.228 2.85978
13 0.04 4.05343
14 0.148 3.61705
15 0.039 3.87541
16 0.038 2.44997
17 0.228 2.85978

Bond Coeffs # harmonic/omp

1 340.618 1.105
2 340.618 1.105
3 322.716 1.526
4 340.618 1.105
5 340.618 1.105
6 340.618 1.105
7 384 1.42
8 540.634 0.96
9 540.634 0.96
10 222.4 1.382
11 540.634 0.96
12 392.8 1.6652
13 392.8 1.6652
14 283.092 1.52
15 340.618 1.105
16 615.322 1.23
17 322.716 1.526
18 340.618 1.105

Angle Coeffs # harmonic/omp

1 39.5 106.4
2 44.4 110
3 39.5 106.4
4 44.4 110
5 39.5 106.4
6 46.6 110.5
7 44.4 110
8 44.4 110
9 70 109.5
10 46.6 110.5
11 44.4 110
12 58.5 106
13 33.3 113.4
14 33.3 113.4
15 33.3 113.4
16 33.3 113.4
17 39.5 106.4
18 57 109.5
19 57 109.5
20 42.3 113.1
21 42.3 113.1
22 42.3 113.1
23 31.1 149.8
24 46.6 110.5
25 45 109.5
26 50 120
27 68 120
28 46.6 110.5
29 44.4 110
30 55 120
31 39.5 106.4

Atoms # full

122 1 3 -0.06871702067766861 29.24577353976549 29.22423778703202 29.86592397951442 1 1 0
116 1 4 -0.0998413393183229 29.350330021905222 30.677482445569964 29.456406340014674 1 1 0
119 1 11 -0.3945852288659543 30.70914202580432 31.112673521215548 29.912461277672286 1 1 0
125 1 6 0.147005472303517 31.088051110759814 29.012154440698744 28.708131686627862 1 1 0
120 1 8 0.149973136254217 30.70007797938097 32.027564721581314 29.750313409089294 1 1 0
593 1 1 0.122271483565328 33.07162017811332 31.913364400794052 31.60194400108638 0 0 1
591 1 3 -0.07029667108803012 33.90004479994232 32.355271485856676 31.05308373695179 0 0 1
124 1 1 0.1247713593387102 29.17072021809313 29.190071772824375 30.924080883657155 1 1 0
123 1 4 -0.0927491925409028 30.473994493783508 28.429097204821264 29.364515868314093 1 1 0
590 1 9 0.1289955065698394 33.991359878966364 33.36368084011453 31.477610446746915 0 0 1
128 1 9 0.1313130607984947 31.42667924826321 29.01635222577085 31.110194694278263 1 1 0
594 1 6 0.1537347057390729 32.835944211251764 31.78242369148343 29.303658638239682 0 0 1
592 1 4 -0.09576315036885003 33.58756054954999 32.49449045445832 29.508257240467678 0 0 1
598 1 3 -0.06605615198733583 32.98180290508055 33.92371547665019 29.23390803752329 0 0 1
2813 1 16 0.144135889737364 31.26342063310811 29.744970307573116 33.2650936407491 1 1 1
2821 1 16 0.1345714152508098 30.56857156950256 32.394056199853644 32.64835519496081 1 1 1
2809 1 14 -0.06870543928195527 30.27079400919542 31.706063220296492 33.40887043613023 1 1 1
113 1 8 0.147434549994211 28.640979210483124 33.9711153658041 28.793146763125346 1 1 0
600 1 1 0.1168416050547589 32.10112612566239 34.09691599966903 29.91934171900814 0 0 1
115 1 3 -0.07373232759906428 29.333791468182895 31.023801306970917 27.954676088532104 1 1 0
118 1 6 0.139178036993425 28.61444794673517 31.27042507869937 29.997709548833225 1 1 0
121 1 9 0.1237599456208441 28.288426839671867 28.720264356040687 29.479323920704257 1 1 0
109 1 4 -0.0916458445221065 28.92298046641566 32.464353256499 27.730850491480528 1 1 0
599 1 4 -0.08933638415045236 32.75126159140742 34.11740624184299 27.717835214921475 0 0 1
2820 1 17 -0.4267138682825027 29.19434608288402 31.712364872481025 34.01462272433335 1 1 1
2810 1 15 -0.06713718962338955 31.28481850576447 30.66797510750063 33.853927692306854 1 1 1
595 1 11 -0.408738767951306 34.75173509150189 32.258261485012234 28.720660027868277 0 0 1
586 1 1 0.1258603102988045 34.392865128864564 30.030715843056157 30.37878699157918 0 0 1
596 1 8 0.1307687255671211 34.41420355089376 31.722410763606437 27.96587219237858 0 0 1
112 1 11 -0.4098889668944083 28.622685409950293 33.04515781593345 28.979472506718828 1 1 0
129 1 3 -0.06215681667006173 31.448905837019737 28.076376678423127 30.555647102069734 1 1 0
131 1 1 0.1257355155408734 32.49309768389616 28.047955338519802 30.239104616560223 1 1 0
127 1 8 0.1445009963657973 29.541485997058576 62.29528701999239 27.89921151354807 1 0 0
2812 1 16 0.1395588085936472 32.34344704026392 31.03366972391525 33.671538152138965 1 1 1
588 1 11 -0.4060201777631735 35.486927981618734 31.86202889584828 32.81317457286167 0 0 1
583 1 9 0.1231141836096077 35.15701288519548 29.593883540666624 31.866490106080885 0 0 1
585 1 4 -0.08231194427995037 35.18685025838808 31.72251453969274 31.392819023722467 0 0 1
589 1 8 0.1402746443497086 36.37656976874207 32.16219389031913 32.93737166157944 0 0 1
584 1 3 -0.06463156593500272 35.24843327789051 30.24633745344034 31.004725511187306 0 0 1
581 1 11 -0.4069325671826467 37.7251166632732 30.493279329426166 30.962253718111416 0 0 1
582 1 8 0.1450325668969679 38.16030099311082 31.166217121938057 30.35248794336694 0 0 1
578 1 4 -0.08528812633629199 36.57343962916053 30.030039376383908 30.253967417716193 0 0 1
587 1 6 0.1322335514238802 35.972214092563014 32.134072201923296 30.86717259839757 0 0 1
575 1 8 0.1409683054801717 39.78723118741232 28.551768254732945 30.14478023370805 0 0 1
573 1 6 0.1465730953861847 38.392438002996236 28.1080595149492 31.560570151211166 0 0 1
574 1 11 -0.4062821460303491 39.02521642204503 28.488382104325392 29.626440089449453 0 0 1
1334 2 9 0.129790336304092 40.351592283807804 31.064879023551274 29.511620025251485 0 0 1
580 1 6 0.1498302244963538 36.57779630150383 30.337708332474364 29.23419787163869 0 0 1
1335 2 3 -0.06243434989740276 40.628465279387726 31.75698268867326 28.69217148991974 0 0 1
577 1 3 -0.061187384056889 36.782311808838905 28.5133821079693 30.060359484492903 0 0 1
1346 2 11 -0.4113416243529731 40.8256902298662 32.2382760258731 32.166169571038914 0 0 1
1347 2 8 0.1277326360181721 40.04370571889428 31.666141264493714 32.19192358538231 0 0 1
1343 2 4 -0.09552876569298185 40.52610851934024 33.2632876784324 31.29189746076992 0 0 1
1337 2 1 0.129133024092473 39.79132780809363 32.52102966137998 28.479855395162375 0 0 1
1342 2 3 -0.06592898100295896 41.58803367637114 33.60937671893409 30.226082820255648 0 0 1
1345 2 6 0.1448686368492501 39.61707288809713 33.176525692462135 30.637474471104014 0 0 1
579 1 1 0.1315727362541437 36.64320076887286 28.379349015021393 28.975812994724997 0 0 1
714 2 1 0.1253992133866808 36.87130018260821 28.957629713422666 33.35154809968898 1 1 0
1313 2 9 0.1279804189186484 36.47710320129691 33.71790429187954 27.77420399969543 0 0 1
1351 2 1 0.1327665926635115 40.34454758106608 34.24293957721386 33.27823532011192 0 0 1
1331 2 6 0.1496414383773246 41.65860907440147 30.03064915646952 27.878183344888615 0 0 1
721 2 1 0.1247151932227063 39.670864888558214 30.46087941810656 34.14586414736098 1 1 0
1352 2 6 0.1552968486836051 38.19876383178176 34.43863890418892 32.28635335492944 0 0 1
571 1 4 -0.097793563901306 38.09365755157855 27.90318933174445 30.50036161388986 0 0 1
576 1 9 0.1273816542679316 36.00054159181988 27.976760280771177 30.62336240320819 0 0 1
718 2 9 0.1179958747191865 38.10095344066946 31.094513655099412 34.2984835650697 1 1 0
716 2 11 -0.4126195471822233 39.441899690637484 28.314644980980848 34.021313249182484 1 1 0
712 2 3 -0.04834895306687037 37.064075482626166 28.647484918188326 34.40342845861096 1 1 0
717 2 8 0.1281648873450648 40.176378012468376 28.087634056173616 34.57924005582719 1 1 0
1336 2 4 -0.08832960296514109 41.89251729679643 32.5442996486271 29.195481277710556 0 0 1
2647 4 9 0.1248492245539362 41.74834330238656 29.26529160456765 32.41330929892057 0 0 0
1338 2 6 0.1522929868804271 42.407307239992974 33.018703411986664 28.307040575932582 0 0 1
1344 2 1 0.1281144127767002 42.49770489442491 34.037787529610426 30.699576511068994 0 0 1
2650 4 1 0.125608034759344 43.14427222507265 29.6834480659785 31.449167239713084 0 0 0
2648 4 3 -0.0601544504905378 42.86945830409955 29.12523219171315 32.35175695616149 0 0 0
1340 2 8 0.1483216423381809 43.265142718951395 31.227969059861387 29.06685319368656 0 0 1
1339 2 11 -0.4082356631522344 42.79845129820384 31.650663208692336 29.79239682746644 0 0 1
2657 4 1 0.1250518613449022 43.21960617419789 31.607720532759366 32.65193260568148 0 0 0
3077 18 17 -0.4102251102447886 46.59396378323832 30.485601575641056 29.06605260057818 0 0 0
3072 18 14 -0.05790861178242823 45.87638850639272 30.45674288603548 30.112342106698268 0 0 0
3069 18 15 -0.05111037509635447 45.824652685364 31.8001934518866 30.858274375989318 0 0 0
3073 18 16 0.1506245682113097 44.82538685124476 32.19624178576899 31.11708339884053 0 0 0
3078 18 16 0.1441626621364558 45.87042327780158 29.63706075064577 30.81448935885818 0 0 0
3068 18 16 0.1537391882322284 45.43661965240624 32.786438539643136 28.40963546862036 0 0 0
3066 18 15 -0.05743220340343014 46.63267852933309 32.923553327783694 30.29739346725132 0 0 0
3065 18 15 -0.05091116394238737 46.145665418638984 33.432703258977796 28.888460502143257 0 0 0
3074 18 16 0.1503025238220551 46.223873221356584 31.502525728639384 31.890251006141934 0 0 0
3071 18 16 0.167288033383462 47.68974882858262 32.63446244584748 30.10018812870179 0 0 0
3070 18 16 0.1648820263687462 46.63377774622343 33.82650281463641 30.968182591353695 0 0 0
2649 4 4 -0.08820091834789479 43.59678664762725 29.798748789894052 33.544317774925396 0 0 0
3067 18 16 0.152740380199974 46.99297158779578 33.533241119296875 28.18977508048765 0 0 0
2655 4 3 -0.06519729267304536 43.235343840932316 31.25415690299197 33.645151070820425 0 0 0
2643 4 1 0.1268913637669197 42.32870792723724 27.864960403672722 30.44511922364832 0 0 0
2792 4 11 -0.4078456827825634 48.03101959370932 29.757598511703414 34.339807356258326 0 0 0
2793 4 8 0.1338020362189015 47.27189104943555 30.340576483895486 34.09597746344869 0 0 0
2652 4 11 -0.4124607461097248 45.02706567510586 29.61795669546989 33.35908484129944 0 0 0
2653 4 8 0.1436144932718236 45.281379282801595 29.2719771239055 34.239206735897056 0 0 0
2658 4 6 0.1434434508460797 45.20416011028949 32.042844833637346 33.82584760305203 0 0 0
2785 4 11 -0.4179381334988689 48.302426158368164 32.74145724693378 33.64612578178009 0 0 0
2626 4 9 0.1294307142661084 43.96329513733512 28.62045733878731 28.409288694574204 0 0 0
2801 4 9 0.1325475649453688 48.04414825480218 28.15067992694563 30.547137593853478 0 0 0
2791 4 6 0.1512627540182626 48.36779714457873 30.50450551539094 32.394441153483776 0 0 0
2642 4 4 -0.08176726938294321 43.290218083792745 27.649905173443774 32.334863787473225 0 0 0
2666 4 11 -0.4069123116329749 44.62436504568805 34.31575139979161 32.71881275243725 0 0 0
2654 4 9 0.1227566544631663 42.33186696124956 31.42239767897928 34.13405839184763 0 0 0
2651 4 6 0.151892832876723 43.14952144321329 29.414341583418558 34.44679211364528 0 0 0
2656 4 4 -0.09186388513454008 44.275721758125385 32.03402665745076 34.48883292794511 0 0 0
2664 4 1 0.1242086157198849 42.63360395255464 33.52708030899149 34.61352218077826 0 0 0
2668 4 9 0.129692938278873 46.401325674656576 34.23455067665856 34.33112389047976 0 0 0
2805 4 6 0.1491627017893403 48.51131020152364 27.867099134753126 28.20368515174125 0 0 0
2786 4 8 0.1289575238395153 48.57703393603037 32.919393194225115 32.76394646949729 0 0 0
2807 4 7 0.1498929573033251 48.65587560610636 29.53481033056335 28.805318499137485 0 0 0
2794 4 9 0.1254441973603935 48.94507568097242 27.849096284907528 32.80337532902479 0 0 0
2803 4 4 -0.07391446800297552 49.11178318033339 28.575588882993763 28.832979692418462 0 0 0
2802 4 3 -0.06055333169955879 49.09542645837837 28.060448892415366 30.283168396611707 0 0 0
2789 4 4 -0.09576197387589608 48.90437406605852 30.032954290232624 33.2566293188395 0 0 0
2795 4 3 -0.06419233156811666 49.60416499515081 28.734100185282866 32.717424224013364 0 0 0
2799 4 11 -0.4060548033151207 50.20559885289223 30.15341494406484 30.781549345529285 0 0 0
2800 4 8 0.1467014061824651 51.13580382017557 30.222325869999494 30.607157775820532 0 0 0
2796 4 4 -0.08068653890012889 50.004663636096566 28.793440533920357 31.21737046691264 0 0 0
2702 4 8 0.1324946990101949 52.57029230062161 33.4668364446864 31.656821329407492 0 0 0
2705 4 4 -0.08454239855773971 53.10379921506758 32.43014347583791 28.199315415271826 0 0 0
2707 4 6 0.1545095598977322 53.56740547799048 31.71258586051678 28.908484858461463 0 0 0
2698 4 4 -0.08891976991970557 51.7565617071089 33.67973043569022 29.944749510028977 0 0 0
2701 4 11 -0.406523501673851 52.885744503689544 33.40456898973611 30.718191549383846 0 0 0
67 1 4 -0.08924556863336119 54.40054076358162 29.261069698217806 32.086501144231214 0 1 0
2790 4 1 0.1258342801415052 50.8305474504219 31.090784498482755 33.057325726719 0 0 0
66 1 3 -0.05958185675535826 54.04791251969046 30.78586290825119 32.286656576725896 0 1 0
2788 4 3 -0.06687470774895632 50.0254754492331 30.892399283742822 33.800887884462 0 0 0
2798 4 6 0.151269185571296 51.03185671178403 28.261889498525967 31.216062342279542 0 0 0
68 1 1 0.1302877006812805 52.97945072582833 30.86365682563575 32.10384356796575 0 1 0
2704 4 3 -0.05920494260528114 51.70607346234418 32.71701108714863 28.746700937978797 0 0 0
2706 4 1 0.1217189667329789 51.12614241803621 31.839538036500958 28.96965622418676 0 0 0
60 1 4 -0.08823143716251192 54.15775793014812 31.35241659147031 33.76629669464951 0 1 0
2700 4 6 0.1544008948524807 50.90777278692042 33.41733948965282 30.61081703437588 0 0 0
2782 4 4 -0.09035513233718095 49.4986447705558 32.23904444226471 34.37047099628484 0 0 0
2797 4 1 0.1305501962544793 50.62126813839406 28.507406279672793 33.24685561966413 0 0 0
62 1 6 0.1555116458528003 53.336860449259284 32.078844035648686 33.74571704063318 0 1 0
2703 4 9 0.129523383936349 51.03559021833034 33.13511481838359 27.98355093580176 0 0 0
80 1 3 -0.05673038788396945 54.37086128404388 28.526480106080893 28.17426131641605 0 1 0
79 1 9 0.1260483009414598 54.238326992778454 29.605430107817497 28.01382629129336 0 1 0
65 1 9 0.1286959308041945 54.486740330134374 31.50122046745413 31.541577608429883 0 1 0
71 1 8 0.1424838241500277 53.15517485782785 28.393771895352984 33.2210872145085 0 1 0
70 1 11 -0.4130745482468896 53.253500738640966 28.489436948704686 32.26179028043697 0 1 0
82 1 1 0.1273482187645959 53.49726178142619 28.14137700402344 62.348693239894075 0 1 -1
74 1 4 -0.08835115624486622 54.15419316208783 28.16151213817954 29.706275030156817 0 1 0
76 1 6 0.1516375772360849 53.070604068689455 28.287793871478403 29.85999486894499 0 1 0
2784 4 6 0.143613680664249 50.31822221806011 32.96549973250611 34.3429469814398 0 0 0
2787 4 9 0.126353391480952 50.62219018010912 30.39250169249194 34.62558703973527 0 0 0
73 1 3 -0.06539466077085287 54.82949456125574 29.194071226222462 30.551683978220503 0 1 0
69 1 6 0.1529247209926529 55.26845680398476 28.91610291864326 32.680561024245115 0 1 0
2712 4 4 -0.08584865933594488 55.3539239710133 33.41699135267872 28.50399593082041 0 0 0
2715 4 11 -0.4178003340508016 55.53902462193412 32.52187115554714 29.64398012392667 0 0 0
2727 4 1 0.1218655408721565 55.4126728762581 34.510214867273696 31.55423090558178 0 0 0
2710 4 9 0.1228014769740346 53.676302790578184 34.52515433600965 27.824742122084967 0 0 0
59 1 3 -0.06115057297681098 55.45334730839534 32.179913003278074 33.95609860527421 0 1 0
75 1 1 0.1240161093436445 54.642831172279244 30.175463166056986 30.142107894982434 0 1 0
2711 4 3 -0.05804270560223324 54.067842370809444 33.47169737629044 27.723596498114823 0 0 0
2806 4 11 -0.4040571671837533 50.470869783673834 28.575171533203953 28.377485695848925 0 0 0
2716 4 8 0.1293350288134105 56.39403739055184 32.08864917679252 29.593192006801907 0 0 0
61 1 1 0.1261683774808753 55.59694347659362 32.706545128676204 33.035787064861665 0 1 0
72 1 9 0.1305564549312036 55.97130629601655 28.966909507003376 30.5699869365497 0 1 0
785 2 6 0.1466297263430761 57.713712295483816 29.99929852481177 31.445226904605768 0 1 0
788 2 9 0.1270427213878381 59.18841258580919 28.652650422176148 30.045864004235472 0 1 0
783 2 4 -0.08878349239752603 58.48711070841202 29.45195595007065 31.916057731871888 0 1 0
778 2 6 0.1571754403516386 59.2795638948224 32.34722106768804 30.784610547446867 0 1 0
776 2 4 -0.08467914911455265 59.48272075795688 31.930478508081663 31.804699360527938 0 1 0
782 2 3 -0.05932846737766162 59.71424937244462 30.388057210338673 31.873197225427646 0 1 0
786 2 11 -0.4013617501969469 58.216993222684195 29.077259000821734 33.27117366670988 0 1 0
769 2 4 -0.08917575630021446 60.252322528410645 34.07123187433157 32.76256986596108 0 1 0
779 2 11 -0.4156229366721574 58.25651571881099 32.12246547645964 32.53818882261865 0 1 0
784 2 1 0.1345481997106099 60.377317169526336 30.07550136090027 31.008098030577926 0 1 0
2721 4 6 0.1505384147586362 57.50821619730817 34.01633995545177 29.844411686585037 0 0 0
775 2 3 -0.06250367547368463 60.69880287386867 32.66003326903619 32.44654138846336 0 1 0
781 2 9 0.1257335546302918 60.39124061767998 30.10930928726962 32.72066888539261 0 1 0
777 2 1 0.1200444119822274 61.54506682398873 32.79671034267073 31.70375328415222 0 1 0
780 2 8 0.1313147895540109 57.66027537816386 32.44939053832623 31.799817340812673 0 1 0
771 2 6 0.1470561393997504 59.475853325708954 34.00114072603749 33.48603480356238 0 1 0
774 2 9 0.1188258545520988 61.15142154291492 32.075389277432265 33.285502413030905 0 1 0
789 2 3 -0.05688926055635846 58.74733999141536 28.261683874504524 30.9849741969702 0 1 0
787 2 8 0.145224736249531 57.34391942186197 29.527465129599943 33.38237171127756 0 1 0
84 1 11 -0.4034273642011915 56.735917855614545 27.828284606808147 28.485017377540615 0 1 0
99 1 8 0.1415797893287599 58.53493218580054 31.13824591548972 28.9193762030845 0 1 0
98 1 11 -0.4205709944504736 59.1349587277159 30.66573751086073 28.346202103055326 0 1 0
2724 4 9 0.1247249092565079 56.95533228339435 34.475012375003274 32.0451862239174 0 0 0
794 2 8 0.1332808632834112 61.28905475143547 27.812808452144598 32.53286401173083 0 1 0
791 2 1 0.1302434799372154 57.74488965718204 27.866283132605457 30.79025050538251 0 1 0
58 1 9 0.1259786097545716 56.36069892416284 31.52089442323466 34.17119111527343 0 1 0
767 2 9 0.1117029280892685 61.847355126212236 34.16504887948835 34.371352631415434 0 1 0
104 1 6 0.1400222775710945 61.26702781386072 31.692023257222093 28.102703567530533 0 1 0
106 1 8 0.145348729800864 60.222709521558585 33.22247775173019 28.662403895689817 0 1 0
105 1 11 -0.4060033958114991 60.46095732132018 33.440329272629086 27.689022569083967 0 1 0
2714 4 6 0.1556703674795818 56.2538699926271 33.33320472628321 27.83589191851687 0 0 0
744 2 11 -0.4130375079901296 33.20872903661609 34.58341149755321 33.768714563950404 1 1 0
750 2 6 0.151717212786366 30.96495468982661 35.55495273738678 33.74660871645142 1 1 0
597 1 9 0.1220935138762645 33.716392128067376 34.71741772237283 29.525833236449238 0 0 1
745 2 8 0.1388614503520863 34.144566341621115 34.71319101210102 33.45054759073059 1 1 0
759 2 8 0.1388022148080744 29.60588360524643 37.6750626848691 32.94778274756899 1 1 0
758 2 11 -0.4200400102822501 28.937392387779433 37.02283320836221 33.18262739386273 1 1 0
211 1 8 0.1328654715850556 30.92470339667352 39.70425608959898 31.862572569127845 1 0 0
210 1 11 -0.4159176569672921 30.671100151043227 40.422756833423506 31.246202162064115 1 0 0
610 1 8 0.1280459785191612 32.11904623763366 37.99952369520379 29.111193288502253 0 0 1
609 1 11 -0.4195820176248496 31.53521338232667 37.42228302825079 28.573000726468894 0 0 1
604 1 9 0.1238715457663718 31.026032918895876 35.174462938128194 28.36242549101707 0 0 1
218 1 8 0.1415992493878891 32.278896337486074 41.03082744636447 29.569150695802655 1 0 0
2893 6 16 0.1450744707456575 33.30029711170108 38.853873892888636 31.008544758820513 0 0 1
608 1 6 0.159242548268316 33.41688310244223 36.68623228515566 27.92964884146685 0 0 1
209 1 6 0.1544546281002851 31.073878486065198 41.3619381963127 32.94653065183723 1 0 0
752 2 8 0.1405475739958311 31.60405265223335 37.446505079991525 33.84552122922696 1 1 0
204 1 8 0.1241321312611032 28.679619215638564 39.67431373373665 33.43040010396949 1 0 0
203 1 11 -0.4278496344600157 29.24998374997451 40.202547232576045 33.99231596116205 1 0 0
2833 2 16 0.143330780442177 29.460139809781683 40.22668293238171 28.127877792743504 1 0 1
2889 6 15 -0.0628301131996124 34.29467570015694 38.97529104842826 31.332034943130825 0 0 1
2894 6 16 0.1450178908399928 34.31017861838857 39.89784949819709 32.04944659468564 0 0 1
2891 6 16 0.1622296264163847 34.702723546824615 40.22801449994189 29.524423106988266 0 0 1
2892 6 14 -0.0587011442042869 34.72481768319224 37.658063855561494 32.06190037497838 0 0 1
2898 6 16 0.1404420871871561 34.19979054968496 37.313812074630164 32.99269951291476 0 0 1
5 1 2 0.1342099071219075 28.714031974648027 37.129934508695825 29.966655632517632 1 1 0
1349 2 3 -0.06016208876484486 40.31517702731735 34.479338875766445 32.171791616980755 0 0 1
1341 2 9 0.1284345110077768 41.20279090389857 34.460664524443125 29.56945432262742 0 0 1
2890 6 16 0.1635427449007722 34.949873961365626 38.57610221173577 29.186668566003842 0 0 1
2897 6 17 -0.4148030562266496 35.41287100383582 36.77958715615733 31.420555844232798 0 0 1
2886 6 15 -0.06984003842528019 35.10225335901356 39.324494800916 30.029484415089 0 0 1
2888 6 16 0.1449959155356219 37.152249154132654 38.50011144924621 30.33399420687455 0 0 1
2885 6 15 -0.04820388324970815 36.58215987194051 39.46661511929584 30.423319789610602 0 0 1
1348 2 9 0.1343868876234743 41.12964759122141 35.20050857061959 32.09788885984301 0 0 1
1309 2 1 0.1301457448320365 37.94746649947989 36.036115897370756 27.964338941215118 0 0 1
1354 2 8 0.1487021051144365 37.75911188941321 35.92226115921561 30.455170606592347 0 0 1
1353 2 11 -0.4008751744806687 38.646723377871496 35.48226618057639 30.52361731539186 0 0 1
1362 2 9 0.1319085266957651 39.489354343925775 38.097947323077896 30.519241658021752 0 0 1
1350 2 4 -0.08648313495138316 38.951726565898525 35.14584239167875 31.8761589067054 0 0 1
1363 2 3 -0.06428118813688521 40.34566546404365 37.996931036925986 31.250352962759447 0 0 1
1359 2 6 0.1555275305907488 39.13649705679818 38.40090037414322 33.138036241204695 0 0 1
1357 2 4 -0.08274675692458477 39.72538420524392 37.59331932188651 32.64940384629461 0 0 1
1355 2 9 0.130243725274973 38.6225083184122 36.0908397358175 33.75496270005793 0 0 1
1356 2 3 -0.0544662941221129 38.75681487317037 36.410276629899755 32.73689411419713 0 0 1
1358 2 1 0.1258150342370219 37.77490296315842 36.85652545620866 32.47228750805447 0 0 1
1360 2 11 -0.4043481661292148 40.72913013460088 37.19040934543672 33.491375984223666 0 0 1
1367 2 11 -0.4035919198149179 39.96514360356153 40.35330361589028 31.39204533283239 0 0 1
1364 2 4 -0.08940011946010373 40.993499769491585 39.410842046039065 31.324336057497327 0 0 1
2895 6 17 -0.4241160102982772 36.70543183270081 40.75519694690264 28.44906812042038 0 0 1
1369 2 9 0.1257256344160798 41.414623350123534 39.16895960763327 29.169481008607743 0 0 1
1368 2 8 0.149217747669601 40.06329376189988 40.94396967085497 32.08489793584917 0 0 1
2887 6 16 0.1487841736368319 36.706547298913144 39.807224123136116 31.48724911120524 0 0 1
2884 6 14 -0.06398376720203935 37.170291822576026 40.60853039242357 29.560738825310285 0 0 1
1302 2 1 0.1186796902210624 39.247161530751924 37.66106726239862 28.208532823729055 0 0 1
1366 2 6 0.1438233217833679 41.58300203485034 39.58775377408429 32.21303067923414 0 0 1
1306 2 9 0.1280228577353103 36.31908004632123 36.50149677809995 27.88271895402217 0 0 1
1365 2 1 0.13223181027117 41.0351663366509 37.23901959269723 30.842174608121095 0 0 1
2896 6 16 0.1383460323762856 37.62048934595102 41.49172035567979 30.11738003635044 0 0 1
1361 2 8 0.1488787485717544 40.67714342997597 37.570548828861334 34.3953230409377 0 0 1
1370 2 3 -0.06968380141215796 41.86885980371528 39.57501174686029 30.072760045743593 0 0 1
1371 2 4 -0.09507973695673239 42.24113412954068 41.13174506957638 29.952755324804077 0 0 1
3064 18 14 -0.05342475581274808 45.38005736545804 34.72005420011725 29.036650495736897 0 0 0
3076 18 16 0.1486776461966275 44.27420703175602 34.61811025210953 29.063832429195664 0 0 0
1372 2 1 0.1233904175137101 42.81642252503846 38.930992990771834 30.116168244121383 0 0 1
2663 4 4 -0.08644501787296616 44.30663999374609 34.653562221541975 34.084524261635615 0 0 0
2667 4 8 0.1505469289997513 44.54394982683269 35.10736813672939 32.22211572438358 0 0 0
3075 18 17 -0.4277940694809498 45.91598074824372 35.61073127676039 29.697293787573784 0 0 0
2675 4 9 0.1230303005548725 46.94219566923172 35.634352538800016 32.6088339189455 0 0 0
3477 1 5 0.09783334448164412 44.46330853078875 39.55203308813537 31.85916798778789 0 0 0
2679 4 6 0.1488810916364598 46.2666332475663 38.057419913076416 32.4323970838379 0 0 0
3145 1 12 -0.4159724394045142 43.99791049994407 39.404127615585665 32.704076054030374 0 0 0
2677 4 4 -0.09200374574069686 47.2393315439369 37.732037134429014 32.80810727558939 0 0 0
2676 4 3 -0.06958227452709437 47.209216486054174 36.32807994006064 33.37432624187435 0 0 0
2685 4 1 0.1326684073269344 47.73833424050157 36.761321675318456 30.936656211698534 0 0 0
2683 4 3 -0.06096704578796325 48.12044389248891 37.5465961090385 31.56664827920528 0 0 0
393 1 8 0.144842521605072 48.19626195681152 39.61359462696955 28.970504730186295 0 0 1
3161 1 13 1.010949838517157 44.068261156814046 40.454600376324 33.94561176412219 0 0 0
2680 4 11 -0.4038881075014697 47.7378883022287 38.58794713029395 33.75877870007779 0 0 0
391 1 6 0.164021445980762 46.35401350172836 40.21601235809716 29.415394835993297 0 0 1
2682 4 9 0.1298072609435637 47.987272306182746 38.45319957980346 30.921126059486657 0 0 0
387 1 9 0.1308223121919166 45.16304098209875 38.32939164437149 29.022399668517224 0 0 1
392 1 11 -0.40241549182346 47.68545867378549 39.243468734815586 28.23823050377515 0 0 1
2678 4 1 0.1228500995725988 48.2026606716876 36.14532799444403 33.80093616685507 0 0 0
389 1 4 -0.07972713708533691 46.41883833211838 39.906337632974996 28.365378814401602 0 0 1
390 1 1 0.119180712060404 44.23017761598469 39.58662251410828 28.241370214887667 0 0 1
388 1 3 -0.05424823565462006 45.12662043229046 39.02028422528342 28.18057762621194 0 0 1
2673 4 11 -0.4082041900388166 45.12733554095965 37.239600270015295 34.32136211281179 0 0 0
1379 2 1 0.1266019673099332 42.466762012957176 41.07480221060784 27.81141745426136 0 0 1
1374 2 11 -0.41738025323515 43.54745137136309 41.338102297938825 30.35007192736076 0 0 1
2681 4 8 0.1430816221956775 48.092362801409486 39.40216218826062 33.332491440771506 0 0 0
2665 4 6 0.142005398201717 43.55071671190672 35.520670933560375 34.17978949379734 0 0 0
2670 4 4 -0.09196792269170312 46.22127908035341 36.3709334721407 34.531385488252724 0 0 0
2695 4 8 0.1361067702331748 49.375117857580896 34.743361026040134 28.42684731674231 0 0 0
2694 4 11 -0.4141435161394873 49.266408221156524 34.84834505938235 29.396059833752847 0 0 0
2718 4 3 -0.06517738183468019 55.52636382437622 34.861240751790405 28.989690822199524 0 0 0
2717 4 9 0.1279667942044468 54.679367324260454 35.266914401982476 29.502467770854032 0 0 0
2689 4 9 0.1223827910658122 49.325613737295015 35.217664251053456 31.7639701301661 0 0 0
2696 4 9 0.123661619299018 52.39827231781305 35.74911916268007 30.161455726309168 0 0 0
2686 4 6 0.1476131037223709 49.75041569404413 37.359050709133484 33.022261580959906 0 0 0
2697 4 3 -0.07056181292558167 51.64283117299358 35.196240145446545 29.584524489387274 0 0 0
2699 4 1 0.1215234008179748 51.85438199308091 35.440740007404855 28.503264742239537 0 0 0
2691 4 4 -0.08767117782452183 50.25069043229049 35.79544796666614 29.857466187008452 0 0 0
2693 4 6 0.1310107687066147 50.17307914113194 36.699664175244884 29.28950600357659 0 0 0
3042 16 14 -0.06686787294500085 53.154920224196545 38.89221886955458 28.53631451334077 0 0 0
3047 16 17 -0.4246108143598185 53.29300273847652 37.6779038661667 28.62171270096618 0 0 0
2731 4 9 0.1252305352057543 54.88393080322464 35.840897477531605 33.16863624800091 0 0 0
2732 4 3 -0.06464448021559749 54.82643436647062 36.599556360054336 32.40473354204714 0 0 0
2684 4 4 -0.08584124902704354 49.638593306042054 37.35222109900894 31.95183391913026 0 0 0
2690 4 3 -0.06691288799766848 50.04146768748218 35.97026142655018 31.42513968555173 0 0 0
2687 4 11 -0.4014215559506868 50.4468810232936 38.26840937325591 31.44016881140118 0 0 0
2741 4 1 0.1270524031480702 52.4650286924515 37.84828011791283 33.42245201107519 0 0 0
2733 4 4 -0.09181032078033552 54.529802871977516 38.00034740220863 32.90018938112838 0 0 0
2736 4 11 -0.4070908961194801 54.03313899546381 38.88516155920719 31.88213197695319 0 0 0
2734 4 1 0.1286574636034944 54.05117734679219 36.21765001260751 31.729206342942184 0 0 0
2739 4 3 -0.06487846133401082 53.39947431469363 37.82700252864675 33.94052660320632 0 0 0
3048 16 16 0.1357239655257152 54.07074658811155 39.47978527490723 28.364573740856986 0 0 0
3043 16 16 0.1425164861433547 50.951324253034024 38.9430592351025 28.80274969475149 0 0 0
3039 16 15 -0.06013610549046111 51.780468753977516 39.51772657131819 28.368545585585814 0 0 0
2692 4 1 0.1243189779828892 50.94198766747746 35.631973198593016 32.0399133403286 0 0 0
2688 4 8 0.1481343778518165 50.60576247846036 38.98222780144724 32.12926087057977 0 0 0
3044 16 16 0.1478292735206238 51.7072211860337 40.52691259775308 28.856680774753244 0 0 0
2738 4 9 0.1276717624653245 53.449888942612134 36.876098270537994 34.47353555655661 0 0 0
2735 4 6 0.1489404301031665 55.439076383098936 38.33722214205534 33.37647734876513 0 0 0
2742 4 6 0.1533314337333493 52.63541771354792 39.7364081641933 34.52327842434234 0 0 0
2737 4 8 0.1450203391443774 53.8031047753066 38.31515846585023 31.120494737628338 0 0 0
2545 4 1 0.1365050581131697 54.8629116086107 41.27423545517914 32.4872159843086 0 0 0