LAMMPS data file via write_data, version 15 Sep 2022, timestep = 120025

3596 atoms
17 atom types
3632 bonds
18 bond types
6624 angles
31 angle types

26.570102454179917 63.81889754582288 xlo xhi
26.33260145417991 63.5813965458229 ylo yhi
26.394103454179913 63.64289854582263 zlo zhi

Masses

1 1.00794
2 1.00794
3 12.0107
4 12.0107
5 1.00794
6 1.00794
7 1.00794
8 1.00794
9 1.00794
10 15.9994
11 15.9994
12 15.9994
13 28.085501
14 12.0107
15 12.0107
16 1.00794
17 15.9994

Pair Coeffs # lj/cut/coul/cut/omp

1 0.038 2.44997
2 0.038 2.44997
3 0.039 3.87541
4 0.039 3.87541
5 0.038 2.44997
6 0.038 2.44997
7 0.038 2.44997
8 0.038 2.44997
9 0.038 2.44997
10 0.228 2.85978
11 0.228 2.85978
12 0.228 2.85978
13 0.04 4.05343
14 0.148 3.61705
15 0.039 3.87541
16 0.038 2.44997
17 0.228 2.85978

Bond Coeffs # harmonic/omp

1 340.618 1.105
2 340.618 1.105
3 322.716 1.526
4 340.618 1.105
5 340.618 1.105
6 340.618 1.105
7 384 1.42
8 540.634 0.96
9 540.634 0.96
10 222.4 1.382
11 540.634 0.96
12 392.8 1.6652
13 392.8 1.6652
14 283.092 1.52
15 340.618 1.105
16 615.322 1.23
17 322.716 1.526
18 340.618 1.105

Angle Coeffs # harmonic/omp

1 39.5 106.4
2 44.4 110
3 39.5 106.4
4 44.4 110
5 39.5 106.4
6 46.6 110.5
7 44.4 110
8 44.4 110
9 70 109.5
10 46.6 110.5
11 44.4 110
12 58.5 106
13 33.3 113.4
14 33.3 113.4
15 33.3 113.4
16 33.3 113.4
17 39.5 106.4
18 57 109.5
19 57 109.5
20 42.3 113.1
21 42.3 113.1
22 42.3 113.1
23 31.1 149.8
24 46.6 110.5
25 45 109.5
26 50 120
27 68 120
28 46.6 110.5
29 44.4 110
30 55 120
31 39.5 106.4

Atoms # full

2699 4 1 0.1260066020037785 46.63984619613201 29.37174504163864 31.214583166933032 0 0 0
2693 4 6 0.1376048042097509 47.207785723977324 32.07136579214353 30.567053822247214 0 0 0
2692 4 1 0.1288390676800459 46.641314215775495 30.07477497676082 28.939577724232187 0 0 0
2684 4 4 -0.07574782411228054 47.40330651703741 31.928687982124362 28.052182492716415 0 0 0
2690 4 3 -0.05876989330577162 47.57462134468376 30.652870427681812 28.994565529107167 0 0 0
2697 4 3 -0.06056420219852032 47.495193215343335 30.04236357577816 31.513404051322837 0 0 0
2691 4 4 -0.07772181672572309 47.797954123047234 31.162536400460723 30.45162712722004 0 0 0
2689 4 9 0.1252574457060884 48.294721825653056 29.92578135809818 28.587737064897517 0 0 0
2694 4 11 -0.4063577692648261 49.164522525791455 31.505320943149904 30.560889126088473 0 0 0
2696 4 9 0.1280449970262981 48.30944951061588 29.313171570582544 31.57330759364756 0 0 0
2695 4 8 0.1417732179605143 49.18993801175511 32.30350069298438 31.027959064488012 0 0 0
2686 4 6 0.1549721557506988 47.33453398376608 31.49083881048297 26.99463559765698 0 0 0
2688 4 8 0.1512595698255483 45.61699512429864 32.18440063569234 27.73336912551845 0 0 0
2687 4 11 -0.3942474708254782 46.1928667924263 32.5477232375559 28.387767754547454 0 0 0
2807 4 7 0.164454221960376 39.77378566442319 34.16985365183269 30.772800113634013 0 0 0
2801 4 9 0.1457877856615477 41.59270587962469 33.24275769186926 29.113598895157093 0 0 0
2805 4 6 0.1630815491151184 39.663073802301156 34.877046987911925 29.05957139699119 0 0 0
2803 4 4 -0.05245330823589056 40.26638939870328 34.808118295975994 29.954985437390757 0 0 0
2802 4 3 -0.03918709617233618 41.671090011861295 34.18113909167122 29.693577484683622 0 0 0
2804 4 1 0.148161731039009 42.34157475833799 34.88502101285715 29.204720986120087 0 0 0
2796 4 4 -0.06046587733514641 42.36007269183153 33.94088003001856 31.023254886348155 0 0 0
2797 4 1 0.140569112962128 44.08554670584674 33.07476320224774 29.895103752302795 0 0 0
2792 4 11 -0.3966073085662022 44.427834330309416 35.63957852232458 30.305861906347033 0 0 0
2795 4 3 -0.04575264124978506 43.78732244070215 33.40616900699815 30.939041826657117 0 0 0
1256 2 8 0.1523531794379679 42.35437889380643 37.18659197590958 28.992161204155785 0 0 1
1255 2 11 -0.3975716189652926 42.449853097371985 37.89212945974379 28.30464992881715 0 0 1
1235 2 8 0.1599773348175859 43.88073820963157 35.90300731389101 27.34831496978491 0 0 1
1234 2 11 -0.3954645054719389 44.06860082312129 34.98697263906391 26.97696569939216 0 0 1
2789 4 4 -0.08002228524894855 44.81037852119607 34.55276188685381 31.08024881778322 0 0 0
2799 4 11 -0.3912096539316476 41.5518703298988 33.02328917322915 31.773450811427686 0 0 0
2798 4 6 0.1631869194180173 42.49190633456524 34.92181713514815 31.600039931925068 0 0 0
2806 4 11 -0.3865264160165586 40.46599628739352 36.10957482441702 30.488461944967845 0 0 0
2808 4 8 0.1633719183204089 40.00239833776339 36.04587561098971 31.348977800988074 0 0 0
1254 2 6 0.1536435557955797 43.95690376611341 38.26049155038881 29.671022549374044 0 0 1
2794 4 9 0.1354757885618132 43.98385255364471 32.471328994810285 31.557425921170804 0 0 0
2788 4 3 -0.05165758504403017 45.21776771119174 35.00768636329241 32.49027698906302 0 0 0
1247 2 6 0.157502730694197 45.20322377585879 38.026644010818 27.54402967883754 0 0 1
2793 4 8 0.1404196307948375 45.21995717854658 35.86610411818559 29.889989307025026 0 0 0
2685 4 1 0.1378210164702332 49.453378946128694 32.72577899455119 28.177815209041064 0 0 0
2683 4 3 -0.05132700906504045 48.41561411481912 33.056272054086755 28.13322797204817 0 0 0
2682 4 9 0.1335798910878329 48.201570592724224 33.57514284426898 29.078812499786707 0 0 0
2791 4 6 0.1600654248980555 45.67914676552423 34.11224664364358 30.61986236619343 0 0 0
2674 4 8 0.1410527813017535 46.753758799205244 36.652178561349665 27.721240394438972 0 0 0
2673 4 11 -0.3945430113323424 47.592710072726874 36.60419073166374 28.144879911293266 0 0 0
2670 4 4 -0.07509668452899332 48.617975674932396 36.45118414998093 27.170704388037695 0 0 0
2785 4 11 -0.4059337616830878 47.4772670650352 34.92259508118378 31.825721199868667 0 0 0
2675 4 9 0.128737111573088 49.63482641609446 34.99942985765481 28.35580034329945 0 0 0
2665 4 6 0.1523772530542264 49.31839858793141 37.10066597011581 29.51868954223364 0 0 0
2669 4 3 -0.0521709747548173 49.68952554504303 37.6144194786352 27.435112905227054 0 0 0
2663 4 4 -0.06920477647961831 50.00433527382871 37.75326545352807 28.973456468301578 0 0 0
2666 4 11 -0.3926136557009807 51.27739934740675 37.25797007227008 29.331655508292428 0 0 0
2780 4 9 0.1372068470947515 46.19209139083722 37.49987316030632 31.541480501439295 0 0 0
2786 4 8 0.1374775717985406 47.6494013667545 35.41832187795079 31.01605794514809 0 0 0
2781 4 3 -0.05307200582574251 46.52115703760522 37.19706830802566 32.498650096724745 0 0 0
2667 4 8 0.1590427563074972 51.19569651530834 36.692014815140865 30.102138643472433 0 0 0
2671 4 1 0.1339470340778821 49.380139441026934 38.506252844937315 26.91539279145138 0 0 0
2679 4 6 0.1572323828446903 47.04299599000355 34.285197409878805 27.05134607846385 0 0 0
2677 4 4 -0.07781360727648134 48.16310555623568 34.004823893906504 27.002968168565065 0 0 0
2676 4 3 -0.05617373087803323 49.1936911601758 35.081453497331914 27.32323203749775 0 0 0
2668 4 9 0.141465209550509 50.63568937165172 37.35091949665064 26.881195339315003 0 0 0
2778 4 11 -0.4055428006393484 48.94161792211239 37.30234497218038 32.29391297562422 0 0 0
2678 4 1 0.1292605899524283 50.022975050735084 34.96004523682686 26.615425095450934 0 0 0
2637 4 6 0.1519472267561521 53.29303810367588 35.582777915263506 31.97344194315104 0 0 0
2640 4 9 0.1352995949184711 53.16302773617437 37.447821492883975 30.7697641409208 0 0 0
2641 4 3 -0.03893833218228221 54.079709426744046 37.46535928197254 31.412285130222248 0 0 0
2643 4 1 0.1361113402380478 54.81495375913023 36.9342235842483 30.83130696035056 0 0 0
2635 4 4 -0.08381918184772935 53.65485251941931 36.5417000185016 32.55068110352882 0 0 0
589 1 8 0.1450726525573649 30.619110786368193 41.4537927306351 28.986392238289426 0 0 1
588 1 11 -0.3991983597168731 31.30301278645732 42.107534958323726 28.97446538705904 0 0 1
114 1 9 0.1248720165687183 30.089198305119847 44.51534651938982 29.913838070370623 1 0 0
585 1 4 -0.07437881146701997 31.4935395300977 42.658896403784965 27.689245261343093 0 0 1
117 1 1 0.1324200469892105 30.273626850893173 44.326940436622586 31.616043050368607 1 0 0
587 1 6 0.1372603049342969 31.15872651413782 43.67473076570245 27.75903082067005 0 0 1
109 1 4 -0.08574189363281692 28.17652136620883 44.89801137330841 30.98947655992368 1 0 0
108 1 3 -0.06173577735020333 27.675444173969886 43.47645604472322 30.63352089354648 1 0 0
110 1 1 0.1288799221195204 27.878741729860824 42.87814857944304 31.5925367518439 1 0 0
107 1 9 0.1288967999285898 28.342605539354913 43.031429608720636 29.79724720528488 1 0 0
590 1 9 0.1337580285312021 29.94143380591077 41.27847074089074 26.930344270541596 0 0 1
100 1 9 0.1212079886804408 26.63004258885201 43.61352239874148 28.154397651959414 1 0 0
591 1 3 -0.06143845738326431 30.72098757316075 41.96692998239088 26.533902496413642 0 0 1
583 1 9 0.1254565275154708 33.32278913014819 41.67023104804611 26.936855225192698 0 0 1
584 1 3 -0.05828750046815628 32.979848768677115 42.63423693460534 27.30099346369878 0 0 1
582 1 8 0.1479519374059372 34.64819360555598 42.01613328433604 29.723168981261402 0 0 1
581 1 11 -0.4004434934787972 34.794431894530234 42.16228430333416 28.785994567407528 0 0 1
578 1 4 -0.07749142709544246 33.86044879527024 43.08659651268738 28.431807137939494 0 0 1
580 1 6 0.1554567961060936 33.325332756328365 43.2665174894164 29.348616532196495 0 0 1
1846 3 8 0.1434827130841184 36.37815266550307 44.11898439140948 32.4567781466006 0 0 0
1845 3 11 -0.3930930646225263 36.9498321062445 44.84287707894083 32.57432916377755 0 0 0
576 1 9 0.130602605758544 35.19428323280039 44.3151834398048 27.06021095494644 0 0 1
577 1 3 -0.05350346741281459 34.494436680140666 44.41006508317459 27.92987652488296 0 0 1
1271 2 9 0.1342963783822321 38.68220505262825 42.73487237134982 31.457590862218765 0 0 1
573 1 6 0.1534973583869873 35.836839100122205 44.47511408635759 29.578857482032983 0 0 1
1260 2 1 0.1306535248880412 42.59912778868737 39.25902926625975 30.94894053457665 0 0 1
1252 2 4 -0.07902028971965258 43.319665532151575 38.84379556679543 28.97660019995177 0 0 1
1267 2 1 0.1310908734320012 39.069300449391314 40.03905602392684 30.696089197213084 0 0 1
1274 2 1 0.1334728576993907 39.514532645316464 42.65928669070585 29.80908867106598 0 0 1
1272 2 3 -0.04736598091435851 39.66574029865783 42.74823589417949 30.916285115785435 0 0 1
1261 2 6 0.1524187179276062 40.65755380081034 39.059251426787014 29.106112847588058 0 0 1
1264 2 9 0.1432699044738264 40.46562096015235 39.423972583647505 31.516195920186554 0 0 1
1258 2 3 -0.05431929981552475 42.56164517512737 39.717356706145196 29.985104494702014 0 0 1
1265 2 3 -0.05308783392219885 40.190873908614606 40.22084765703299 30.826834452845862 0 0 1
1273 2 4 -0.07309925152686958 40.32208012259427 44.14171118030315 31.232052490373544 0 0 1
1266 2 4 -0.06957471293740713 40.585550533916894 41.64014365777106 31.41121778813104 0 0 1
1281 2 1 0.1417159531843792 42.028424634919716 44.01844693297204 29.781478036251116 0 0 1
1257 2 9 0.1306594125287583 43.07803773538371 40.69394310315339 30.0349099866325 0 0 1
1268 2 6 0.1623994100863242 41.61071676536161 41.78622950806469 31.108407799399032 0 0 1
1259 2 4 -0.07162353007211308 41.06871341678877 39.90624034017571 29.581582662733172 0 0 1
1262 2 11 -0.3921850575392192 41.05555978782827 41.05685310401034 28.695314312658333 0 0 1
1263 2 8 0.159523824881648 40.465748208807604 40.86253161003948 27.957255451088226 0 0 1
1251 2 3 -0.05141351557744644 43.993196815994004 39.748008824016054 27.979286508767498 0 0 1
1250 2 9 0.1319384018067498 43.16426710409766 40.25585934316981 27.48032881652134 0 0 1
2415 4 8 0.1786637629575347 43.71695239532251 43.23296455326149 31.840091201791562 0 0 0
2414 4 11 -0.342010038733955 44.60938906743084 43.048937352555214 32.17405795269929 0 0 0
477 1 8 0.1372615333858218 42.157177280306456 44.08321256310243 27.43603397699102 0 0 1
1253 2 1 0.1299752994985183 44.5412044223864 40.641841033856196 28.430327613591377 0 0 1
1275 2 6 0.1603525919774121 39.50529530034169 44.86622794998593 31.404861307861914 0 0 1
476 1 11 -0.4064623175284421 42.390259999927935 44.58197955962455 26.640513969459548 0 0 1
1279 2 3 -0.04259664535700147 41.141132880797784 44.63456273252507 30.04179268813135 0 0 1
1276 2 11 -0.3888390818028699 41.202888636353 43.96779865584021 32.3605962557281 0 0 1
470 1 8 0.1367616779755748 43.98493716198364 42.01383866103107 26.448291126459317 0 0 1
469 1 11 -0.4046242536647935 44.73503232470413 42.61139282652821 26.458701580062204 0 0 1
1291 2 8 0.1415815596717959 44.23573928536728 44.36181763098983 28.536450922851838 0 0 1
1290 2 11 -0.4036699794317456 44.161679048209564 44.97455693704154 29.271439096319696 0 0 1
1245 2 4 -0.07709934474032409 44.864690447679436 38.9324339618175 26.974702979114518 0 0 1
1278 2 9 0.1362269559408023 40.48150060007552 44.7527301251221 29.177993778765547 0 0 1
2777 4 6 0.149284082960451 47.7016933290024 38.94251013197152 32.41557038914736 0 0 0
3088 19 16 0.1628662132017601 47.03093741578636 44.00218590319015 30.491564516859402 0 0 0
2662 4 3 -0.05477135382359055 49.69698490904108 39.07283749177455 29.53537194680935 0 0 0
2664 4 1 0.1307452064143112 49.317184536513864 38.98587515985579 30.530687968456824 0 0 0
2661 4 9 0.1311918588621718 48.882573888801275 39.514645179057624 28.894816980156122 0 0 0
3089 19 16 0.1629211038801759 48.55774043471607 43.019185967907035 30.557439178415066 0 0 0
3084 19 15 -0.02887205050395414 47.580489995372204 43.149842046477374 30.058823355324776 0 0 0
3087 19 14 -0.03794444760784876 46.82265470655997 41.86219660572381 30.420825390877834 0 0 0
3092 19 17 -0.3984671103208053 47.41300991699257 40.881819293640554 30.83353385822382 0 0 0
3086 19 16 0.1826325992324703 46.774528812893635 43.52893944697303 28.016515129817986 0 0 0
3081 19 15 -0.04170973019649804 47.77941173649127 43.224494444701484 28.51842822973079 0 0 0
3085 19 16 0.1815510110376257 48.01806865722951 42.229184202042575 28.086199259216144 0 0 0
3082 19 16 0.1587681637308825 49.62224063937927 43.74202127818026 27.54310846728057 0 0 0
3080 19 15 -0.03198743363939194 48.783320751047896 44.21134939210005 27.995613782120707 0 0 0
3093 19 16 0.1527493779574525 45.703448931360576 41.751330228094005 30.338035600448023 0 0 0
3083 19 16 0.1573879387877724 48.36776672338472 44.85833920827573 27.216297769320622 0 0 0
3091 19 16 0.1498168849398416 50.043065087423855 44.849759651019724 29.759884174459774 0 0 0
1248 2 11 -0.4009783571550938 45.982550564836764 39.6942470297379 26.471866920983775 0 0 1
2656 4 4 -0.07651587940808702 50.97911739764285 39.95629658160453 29.495514775213913 0 0 0
2659 4 11 -0.39827271311767 50.535180745534525 41.29221976931941 29.263646112001606 0 0 0
2660 4 8 0.1501600747110303 50.97397392238201 41.53133906193684 28.4689811732436 0 0 0
2654 4 9 0.1295221220532413 50.781523415046706 40.4272825150703 31.5626934500429 0 0 0
1249 2 8 0.1467637089675242 46.781983834369356 39.202317599485426 26.58026862435537 0 0 1
2642 4 4 -0.06854292133540318 54.72116966703 38.83393294475243 31.709354905307528 0 0 0
2644 4 6 0.1631064026584967 55.30749279126981 39.21166168704806 30.84033243884755 0 0 0
2646 4 8 0.1519997533684076 56.59291618141597 38.97879409872412 32.214934976772874 0 0 0
2657 4 1 0.1343630734632013 51.57132628914867 38.875916951277674 31.29378777621193 0 0 0
2658 4 6 0.1531448767255473 51.708192636434504 39.74058828940112 28.785963460551034 0 0 0
2655 4 3 -0.05076258542516932 51.51007230411801 39.89487965747048 30.952851162335456 0 0 0
2652 4 11 -0.4009318176458629 53.61503301727339 40.50524354027212 29.916430571447034 0 0 0
2651 4 6 0.1580740941194307 52.78879014967773 41.48882833456185 31.44601255557463 0 0 0
2649 4 4 -0.0746827862667036 52.894842790277394 40.496545702815894 31.0861111414228 0 0 0
2653 4 8 0.1507589123861408 53.950450047024816 41.41008803541106 29.81430937843659 0 0 0
2648 4 3 -0.04754290761913527 53.756779250986305 39.88464816160806 32.17108977923484 0 0 0
801 2 8 0.159396742585469 55.907736566412076 41.88476082406095 28.16861349450423 0 0 0
799 2 6 0.1618808299458721 55.80020557985175 42.896757428703836 29.93324298466354 0 0 0
797 2 4 -0.0643739234660391 56.75123350704413 42.96377156214955 29.45765805761349 0 0 0
800 2 11 -0.3883425003596375 56.81657802402971 42.08665445203628 28.375263760512695 0 0 0
804 2 4 -0.06952431234261347 57.57028070036087 42.34112776984248 31.86600054691274 0 0 0
806 2 6 0.1580709356420359 57.07374288752783 41.327472083369884 31.96565973488235 0 0 0
794 2 8 0.1374332118315816 54.27484735321168 44.18192631578643 27.517200294549923 0 0 0
796 2 3 -0.05108388625705867 56.921326603222454 44.4983591640651 29.036422636067183 0 0 0
792 2 6 0.1580683698178285 56.0486935921128 44.729008221493054 27.07355743543002 0 0 0
793 2 11 -0.4049856468642976 54.594993414271755 44.51168726768351 28.37856149280389 0 0 0
807 2 11 -0.3936214392477071 56.759243046573204 43.396380627807446 32.30943315190329 0 0 0
803 2 3 -0.03270875979789134 57.94003086717894 42.55522352942211 30.34000366666259 0 0 0
102 1 4 -0.09778351570217458 63.42128154243761 43.22308654203117 30.26385321544513 0 0 0
103 1 1 0.1275817294839211 63.61581162255133 41.92849470193866 28.532695013711546 0 0 0
104 1 6 0.1440465713665673 63.002618641545716 42.408415502615895 30.922231964198634 0 0 0
101 1 3 -0.06576327983854835 63.26330336438779 42.93794426477284 28.737760255760065 0 0 0
94 1 3 -0.06039540914141972 61.433843647879165 42.847537001884106 26.863550935071142 0 0 0
96 1 1 0.1357000947897399 61.574173322090736 41.75360438942984 26.56456847909133 0 0 0
88 1 4 -0.07289508856074595 60.02486271045562 43.34138144713735 26.579235671377386 0 0 0
95 1 4 -0.09254578032474531 61.74494265820461 43.18236081461579 28.360006003457467 0 0 0
98 1 11 -0.413758935518492 60.903677458954995 42.34890001653399 29.155191127606173 0 0 0
99 1 8 0.1444114368263355 61.37321445963134 41.51493703981107 29.24322086427274 0 0 0
97 1 6 0.1463704472651426 61.53145319162016 44.22642748877714 28.55963919120377 0 0 0
90 1 6 0.1576120435838927 59.34104961186004 43.143509483645744 27.401543190678005 0 0 0
105 1 11 -0.4025793749981402 62.74118453499516 44.403293208795574 30.488626259283773 0 0 0
106 1 8 0.146607482795714 62.52873516264361 44.61640672336944 31.398090923212937 0 0 0
812 2 1 0.1314095722178132 59.272482719120156 41.32560604533916 32.54677807385593 0 0 0
809 2 9 0.1393193719878993 59.559959051214314 43.034079777363196 32.534717595255984 0 0 0
802 2 9 0.1415540007563008 58.78438193384712 43.247383190934165 30.18392023102816 0 0 0
798 2 1 0.1389081096586412 57.92435677897289 44.83453301983124 28.70813841483673 0 0 0
805 2 1 0.1404539207827406 58.29682578930229 41.5511764234726 29.996713560715396 0 0 0
91 1 11 -0.4044791189240242 60.08041639360212 44.83516582664074 26.435809916552948 0 0 0
115 1 3 -0.06636714906865079 29.74513981614875 44.93077075168213 30.882345363461706 1 0 0
121 1 9 0.1286191400027772 31.65387486016665 45.86117755549516 29.15345192550732 1 0 0
111 1 6 0.147566006406334 27.787279337804765 45.63004535666607 30.372602971674578 1 0 0
118 1 6 0.1441239673485606 31.142707020307885 46.5387930346085 31.554506614876317 1 0 0
127 1 8 0.1476041613071897 28.245133159068143 46.27166815314787 27.815545230326716 1 0 0
126 1 11 -0.4040980442181561 29.127677037715493 45.94441660197138 27.877322983146506 1 0 0
116 1 4 -0.09236847521471478 30.293387744442764 46.43701942072801 30.84232320936352 1 0 0
122 1 3 -0.05977348141433081 30.968469328179026 46.735000490182045 29.446156667448363 1 0 0
124 1 1 0.1304139125295375 31.667727094457987 47.57648258681575 29.57766226325838 1 0 0
119 1 11 -0.3906351298398285 29.33310081538561 47.36871683793281 31.263678679372582 1 0 0
123 1 4 -0.084217738859487 30.00079746143451 47.08249507154315 28.27411544447665 1 0 0
125 1 6 0.1516270988481564 29.395774767639683 47.9727015652842 28.44295274927873 1 0 0
946 2 6 0.1548715664715931 28.18776492707204 49.683574795840954 28.568667360114446 1 0 0
129 1 3 -0.05107722560490113 31.02226185510012 47.38930609623199 27.11950413733834 1 0 0
120 1 8 0.1520899887251737 29.637534905895492 47.51519253856162 32.151067551104546 1 0 0
952 2 1 0.1354984265663679 27.48749744793198 48.154744011588164 30.204993951954275 1 0 0
131 1 1 0.1319160549076294 32.10248138439978 47.45517398346237 27.403389336509722 1 0 0
134 1 8 0.1439296490690216 31.18112131907656 50.2277610556377 27.205290604457378 1 0 0
133 1 11 -0.406352756600554 30.371542557891775 49.719765282899495 27.283474391691602 1 0 0
1977 3 6 0.1610956040473495 31.502130810251288 50.7904738674819 30.287240003049973 0 0 0
949 2 9 0.1364213546950279 27.171736652080288 49.519364223143285 31.10401868723903 1 0 0
128 1 9 0.1375915656775661 30.981828962907706 46.61352023653388 63.60971690762442 1 0 -1
944 2 4 -0.08279677654203638 27.121052815147735 49.780898156512066 28.86794812782075 1 0 0
948 2 8 0.1477249223893907 26.749229412227027 48.50170802366085 27.433198078121098 1 0 0
950 2 3 -0.0456999927083549 26.82015576863425 48.99431473762614 30.152859000087897 1 0 0
112 1 11 -0.4070076606086863 27.90619103308551 45.04957807261669 32.378921460395205 1 0 0
113 1 8 0.1487172589001646 27.61964730222671 45.97147063733165 32.429648719815674 1 0 0
1973 3 9 0.1285530889746023 31.748481252299772 50.97934721049668 32.35596098309507 0 0 0
1980 3 9 0.1353334443970236 33.37504813946178 50.88640737341127 28.897658280946086 0 0 0
579 1 1 0.1355290431811724 33.67760528075209 45.057174441871425 27.593981661075805 0 0 1
575 1 8 0.1480511120231953 34.0253633617338 45.118560893410894 30.690538601692335 0 0 1
1976 3 1 0.1285093516757422 33.312422715187125 50.31836411280007 32.00703054992621 0 0 0
570 1 3 -0.06067053936413092 35.92620215107842 46.31438635341708 28.525548274101705 0 0 1
571 1 4 -0.08610224271584377 35.15024488000701 45.173272924344474 29.091331666698398 0 0 1
572 1 1 0.125616485797586 35.2449233507701 46.96086937304758 27.8591570687436 0 0 1
574 1 11 -0.3961809170616236 34.15740240062561 45.70839423988033 29.937038887381327 0 0 1
564 1 4 -0.08091700580408157 36.6625362891091 47.21439754327424 29.590444469252922 0 0 1
569 1 9 0.1228192968108204 36.74258318830529 45.95781487845113 27.890538714175285 0 0 1
566 1 6 0.1604515040918406 36.4269216274241 46.74338226548453 30.58512963593076 0 0 1
559 1 6 0.1570588354211254 37.060715720862355 48.71554849534926 27.715753042132345 0 0 1
563 1 3 -0.05720643180251417 36.0511553931385 48.62315816140546 29.617532758849425 0 0 1
562 1 9 0.1411827967629614 34.95520409411988 48.62396035998741 29.78162683393945 0 0 1
557 1 4 -0.07131547560435242 36.366516611233585 49.33103749078989 28.33662084636965 0 0 1
565 1 1 0.1324943558989413 36.35682061342388 49.20063868986589 30.513913574976595 0 0 1
567 1 11 -0.4039163261073336 38.027882987895936 47.316508629322634 29.457008939251736 0 0 1
560 1 11 -0.3915716739791186 35.2079493887744 49.524030710680016 27.602855680795592 0 0 1
561 1 8 0.1564781351172162 35.25567933416955 48.96310268449945 26.838841219772014 0 0 1
1965 3 8 0.1600733616201818 36.32572115391127 50.16984918025119 32.44310980816514 0 0 0
556 1 3 -0.05428659957081339 37.1861109276998 50.60979802486894 28.569259501860763 0 0 1
568 1 8 0.1326482157767042 38.41123626542342 46.71675843195548 30.090637213334222 0 0 1
558 1 1 0.1323642626193094 38.07978605413431 50.36853028527803 29.1569356893892 0 0 1
1964 3 11 -0.3914169781584448 35.72237984885823 50.86175888455912 32.0918293435373 0 0 0
550 1 4 -0.08336052720849513 37.75398334516376 51.074696380968774 27.179237694854177 0 0 1
552 1 6 0.1527556168380231 37.92417454318157 50.176543506417055 26.51437925078923 0 0 1
1282 2 6 0.1562456726546352 42.63217915924291 45.817763673915685 31.165201034349145 0 0 1
1280 2 4 -0.0740751516170583 41.7965133460599 45.992815916621524 30.381026232788283 0 0 1
1288 2 1 0.1302013052588785 41.779171088691875 46.46753439529397 28.26174186570901 0 0 1
1286 2 3 -0.05586800299839167 42.44266851855463 46.69230890109999 29.193678244772226 0 0 1
1287 2 4 -0.07818770996242125 43.92091316803617 46.33507505050102 28.9159564726676 0 0 1
1283 2 11 -0.4006442090378192 40.85532056542015 46.84812208675247 30.9893036874929 0 0 1
1285 2 9 0.127416919888753 42.31731226841278 47.85029835897469 29.289183944427222 0 0 1
1942 3 6 0.1604257667358496 41.739139032869105 49.51686067093298 30.649955696058882 0 0 0
1940 3 4 -0.07138879721281266 41.919017805542914 50.123220078427096 31.50447858923872 0 0 0
1289 2 6 0.1353809182394259 44.019106699978224 46.385250422813236 27.808489807640907 0 0 1
1295 2 1 0.1256580491369863 44.549101989608545 47.6920339914125 30.454204152096317 0 0 1
1297 2 11 -0.3926933055879122 44.30076096944629 49.206135116222754 28.38083791673616 0 0 1
1946 3 3 -0.05023141802131137 40.513267465578366 50.42644561971339 32.02685646988362 0 0 0
1284 2 8 0.1489404530835046 40.98125353614124 46.78327659332993 31.96772045439797 0 0 1
1948 3 1 0.13218092238305 39.80978705876515 49.65787750681473 31.732654025669568 0 0 0
1298 2 8 0.1413007209415375 44.07189719761007 49.486555000972 29.19771625480945 0 0 1
1293 2 3 -0.06135582722335242 44.96879163995156 47.23498268391651 29.54120598075114 0 0 1
551 1 1 0.130352092829868 39.84899867468965 51.11019722204413 27.950080746192864 0 0 1
1941 3 1 0.1342208476670725 42.89269387566285 48.287895580779626 32.15136187521621 0 0 0
1939 3 3 -0.04151752908226075 42.73778055380246 49.29413009085151 32.527513535941424 0 0 0
1936 3 11 -0.3929688259810186 45.16141186447253 49.30385805596635 32.074560058787156 0 0 0
3079 19 14 -0.04559113016720306 49.28983440460782 45.18601490295195 29.00978388260106 0 0 0
1294 2 4 -0.08425544417902453 45.44348562977216 48.42378687782275 28.64499303808107 0 0 1
1296 2 6 0.15886429039516 46.12978140980114 48.91179103120231 29.341878312515846 0 0 1
1303 2 6 0.1543736299338752 45.80993511838597 50.04234541561975 26.74432463082993 0 0 1
3090 19 17 -0.4104771757835921 48.923581913778065 46.352704069702284 28.955436516296793 0 0 0
1299 2 9 0.1360565714788066 46.0209311106083 46.96298749800654 27.11616677655519 0 0 1
1292 2 9 0.129889380750926 45.79987853721098 46.661289746293725 29.881709767616705 0 0 1
1300 2 3 -0.05009179081349713 46.185103147787196 48.00901409334372 27.415804585948006 0 0 1
1302 2 1 0.1264113115944887 47.29429880731197 48.04767337716743 27.544546809624606 0 0 1
2401 4 8 0.1265275828369001 49.61741555286188 45.22672844611439 32.59251155322155 0 0 0
795 2 9 0.131429966522884 56.786254378739265 45.00303563365198 30.0649164142171 0 0 0
790 2 4 -0.07763061137640176 55.84661837901885 45.061071318298374 28.140337517710485 0 0 0
789 2 3 -0.04474571027154717 55.709279450066845 46.631080383736034 28.27327307110939 0 0 0
788 2 9 0.133320325008091 54.71343600613108 47.01081499609696 27.919015226969094 0 0 0
791 2 1 0.1367260218998445 55.66535678201828 46.92964599536572 29.355599632080903 0 0 0
783 2 4 -0.07746791030892924 56.78359043888081 47.468016953770686 27.50257439350414 0 0 0
2853 3 16 0.1505791368499578 56.851353068495285 49.2366003544059 32.01419194914327 0 0 0
785 2 6 0.1530912853508102 56.78634178893641 48.5104036968206 27.669151822802153 0 0 0
2847 3 14 -0.04084961513706853 57.57866838778283 49.55954719247603 31.25235875791811 0 0 0
786 2 11 -0.3938035415594167 58.1137880655333 47.07057924599431 27.774475701277193 0 0 0
787 2 8 0.1495889863330686 58.48224031714956 47.49094873605371 28.594872083620192 0 0 0
92 1 8 0.1444212570532715 59.5261525692357 45.165934006002495 27.11352613800138 0 0 0
2844 3 15 -0.03383826602339063 57.773951503936885 51.023043976145075 30.925492686756183 0 0 0
2852 3 17 -0.409354457081556 58.24728860235186 48.71400211668306 30.654378589697977 0 0 0
947 2 11 -0.3942004683173467 63.56519040524311 49.26946467014563 27.879831279967167 0 0 0
953 2 6 0.1575685947306573 62.78059433778399 47.37721311282131 29.744935911989227 0 0 0
951 2 4 -0.06853848865582585 62.66933156165325 48.391374618852225 30.296181887889677 0 0 0
954 2 11 -0.4071961664627745 61.566963351986125 49.090297590542406 29.782949726954012 0 0 0
955 2 8 0.1414138353821418 61.1449130179256 48.416559233029034 29.224281474127558 0 0 0
957 2 3 -0.04127109143069399 62.31868580098428 47.88203801506494 31.711414997245125 0 0 0
959 2 1 0.1382394191962031 61.611677169662784 47.03375048736846 31.746061860428537 0 0 0
2966 11 16 0.1828090576445922 61.18895664101681 50.50386853439197 27.26284471084729 0 0 1
2962 11 16 0.1612575843210901 61.059472523649546 48.30625901096289 26.872713532200887 0 0 1
961 2 11 -0.40390628393766 62.34215881341124 50.299492152966934 32.38249182535279 0 0 0
956 2 9 0.14100674683865 63.19824296527204 47.70904810514456 32.22498438942108 0 0 0
2846 3 16 0.1796887280720627 58.953141586170595 50.395642467040915 29.233143341425443 0 0 0
962 2 8 0.1360634831323091 61.60445164953063 50.972347014449895 32.51692359407195 0 0 0
960 2 6 0.1536446778558969 60.592144331704866 49.09490727930183 32.24835746046365 0 0 0
2845 3 16 0.1789006012068082 59.89823290573866 51.20422639552974 30.578916694475772 0 0 0
2963 11 16 0.1633882019395851 59.46618420778407 49.09230842735864 26.53597339743037 0 0 1
1975 3 4 -0.07644808127365832 32.16491832841243 51.553739662437664 30.565046252990445 0 0 0
943 2 3 -0.06030122753711387 26.606293800877534 51.253077593491255 29.122051133114077 1 0 0
940 2 11 -0.3890671508902295 28.881606915243445 51.5358216813666 29.838808930806827 1 0 0
941 2 8 0.1473082107731427 29.297032559376714 51.73249868198455 28.999006928978993 1 0 0
937 2 4 -0.07280439793627935 27.59735127312633 52.14683392538679 29.750592298136233 1 0 0
155 1 8 0.1623822606581428 28.38568281897052 53.84697042265183 27.15156401304316 1 0 0
166 1 1 0.1305293819394189 27.872883215290585 56.19498065871936 27.444230583326853 1 0 0
1986 3 8 0.1525517395482597 31.242244682056473 53.28475027757375 27.827634000052672 0 0 0
1985 3 11 -0.3922501524162317 31.93584482239894 52.59739874264384 27.727940989274515 0 0 0
1978 3 11 -0.3934229042072068 31.358627200318853 52.7161435945486 30.59575888433268 0 0 0
154 1 11 -0.3876722644007661 27.694521071903758 53.566382296681 26.45927759253481 1 0 0
934 2 8 0.1492642164033571 27.93601515946355 55.21357430824455 30.59349153555725 1 0 0