LAMMPS (15 Sep 2022)
OMP_NUM_THREADS environment is not set. Defaulting to 1 thread. (src/comm.cpp:98)
  using 1 OpenMP thread(s) per MPI task
Loaded 1 plugins from C:\Users\HP\AppData\Local\LAMMPS 64-bit 15Sep2022\plugins
package omp 0
using multi-threaded neighbor list subroutines
package omp 8
set 8 OpenMP thread(s) per MPI task
using multi-threaded neighbor list subroutines
# Initialization
units			real
dimension		3
processors		* * *
boundary		p p p
atom_style		full
pair_style		lj/cut/coul/cut 10.0
bond_style		harmonic
angle_style 	harmonic
dihedral_style  harmonic
read_data		PVA_GA_NP_H2O_INPUT_WITH_CHARGE.data
Reading data file ...
  orthogonal box = (0.608005 -0.152998 -0.414498) to (180.608 179.847 179.5855)
  1 by 1 by 1 MPI processor grid
  reading atoms ...
  6684 atoms
  reading velocities ...
  6684 velocities
  scanning bonds ...
  4 = max bonds/atom
  scanning angles ...
  6 = max angles/atom
  scanning dihedrals ...
  12 = max dihedrals/atom
  reading bonds ...
  6640 bonds
  reading angles ...
  12076 angles
  reading dihedrals ...
  18888 dihedrals
Finding 1-2 1-3 1-4 neighbors ...
  special bond factors lj:    0        0        0       
  special bond factors coul:  0        0        0       
     4 = max # of 1-2 neighbors
     7 = max # of 1-3 neighbors
    16 = max # of 1-4 neighbors
    20 = max # of special neighbors
  special bonds CPU = 0.005 seconds
  read_data CPU = 0.168 seconds

#output

thermo			100
thermo_style	custom step temp pe press vol lx density
#dump			1 all custom 100 before_cross_linking.lammpstrj id type x y z
timestep 1

#initial minimization
minimize                1.0e-5 1.0e-5 10000 10000
Switching to 'neigh_modify every 1 delay 0 check yes' setting during minimization
Generated 153 of 153 mixed pair_coeff terms from geometric mixing rule
Last active /omp style is dihedral_style harmonic/omp
Neighbor list info ...
  update: every = 1 steps, delay = 0 steps, check = yes
  max neighbors/atom: 2000, page size: 100000
  master list distance cutoff = 12
  ghost atom cutoff = 12
  binsize = 6, bins = 30 30 30
  1 neighbor lists, perpetual/occasional/extra = 1 0 0
  (1) pair lj/cut/coul/cut/omp, perpetual
      attributes: half, newton on, omp
      pair build: half/bin/newton/omp
      stencil: half/bin/3d
      bin: standard
Per MPI rank memory allocation (min/avg/max) = 21.28 | 21.28 | 21.28 Mbytes
   Step          Temp          PotEng         Press          Volume           Lx          Density    
         0   0              30054.395     -614.41614      5832000        180            0.012937713  
        41   0              11572.859     -24.396066      5832000        180            0.012937713  
Loop time of 0.572305 on 8 procs for 41 steps with 6684 atoms

76.4% CPU use with 1 MPI tasks x 8 OpenMP threads

Minimization stats:
  Stopping criterion = linesearch alpha is zero
  Energy initial, next-to-last, final = 
      30054.3948270098   11572.8587147719   11572.8587147719
  Force two-norm initial, final = 5494.8065 215.98544
  Force max component initial, final = 1177.9601 35.743803
  Final line search alpha, max atom move = 2.0497104e-13 7.3264446e-12
  Iterations, force evaluations = 41 145

MPI task timing breakdown:
Section |  min time  |  avg time  |  max time  |%varavg| %total
---------------------------------------------------------------
Pair    | 0.3292     | 0.3292     | 0.3292     |   0.0 | 57.52
Bond    | 0.20249    | 0.20249    | 0.20249    |   0.0 | 35.38
Neigh   | 0.005602   | 0.005602   | 0.005602   |   0.0 |  0.98
Comm    | 0.002729   | 0.002729   | 0.002729   |   0.0 |  0.48
Output  | 0          | 0          | 0          |   0.0 |  0.00
Modify  | 0.015722   | 0.015722   | 0.015722   |   0.0 |  2.75
Other   |            | 0.01656    |            |       |  2.89

Nlocal:           6684 ave        6684 max        6684 min
Histogram: 1 0 0 0 0 0 0 0 0 0
Nghost:           1190 ave        1190 max        1190 min
Histogram: 1 0 0 0 0 0 0 0 0 0
Neighs:         244870 ave      244870 max      244870 min
Histogram: 1 0 0 0 0 0 0 0 0 0

Total # of neighbors = 244870
Ave neighs/atom = 36.635248
Ave special neighs/atom = 11.251945
Neighbor list builds = 2
Dangerous builds = 0

#Intial compression from 0 to 1000 atm
fix                     1 all npt temp 300.0 300.0 100.0 iso 0.0 1000.0 1000.0
WARNING: Detected non-ASCII characters in input. Will try to continue by replacing with ASCII equivalents where known. (src/input.cpp:462)
#restart                         50000 initialcompression.restart
run                     50000
Generated 153 of 153 mixed pair_coeff terms from geometric mixing rule
Last active /omp style is dihedral_style harmonic/omp
Per MPI rank memory allocation (min/avg/max) = 20.15 | 20.15 | 20.15 Mbytes
   Step          Temp          PotEng         Press          Volume           Lx          Density    
        41   0              11572.859     -24.396066      5832000        180            0.012937713  
       100   15.468713      11166.843     -11.779583      5819316.7      179.86942      0.012965911  
       200   34.157894      11058.642      7.1782822      5770849.2      179.36866      0.013074808  
       300   50.89172       11143.32       1.4703129      5738184.3      179.0296       0.013149236  
       400   60.986812      11099.951      13.502347      5706786.8      178.70247      0.013221581  
       500   71.55764       11565.76       4.0766234      5684301.7      178.46746      0.013273881  
       600   93.94384       11492.872     -0.86233324     5650114.1      178.10895      0.013354198  
       700   116.71847      11649.417     -15.163838      5587912.2      177.45294      0.01350285   
       800   151.6731       12012.261      3.4231998      5501296.4      176.53128      0.013715448  
       900   179.43912      12750.73       8.7558938      5432298.6      175.79015      0.013889653  
      1000   209.93468      13572.146     -15.676516      5358974.5      174.99564      0.014079698  
      1100   241.79966      14038.933      7.8104413      5269331.7      174.0144       0.014319224  
      1200   288.74482      14281.736      4.6506058      5195314.8      173.19577      0.014523228  
      1300   308.12018      14673.727     -18.974844      5114458.7      172.29257      0.014752831  
      1400   321.10567      14884.986     -6.2096036      5020264.6      171.2283       0.015029634  
      1500   301.28679      14917.569      7.7153266      4939934.7      170.3101       0.015274036  
      1600   284.67534      14511.085      11.38153       4873999.6      169.54897      0.015480662  
      1700   290.36201      14680.708      11.761506      4808370.5      168.78453      0.015691957  
      1800   305.2227       14605.936     -8.8063743      4746120.9      168.053        0.015897771  
      1900   307.17697      14969.663     -3.7124477      4671481.8      167.16739      0.016151779  
      2000   306.23532      14953.373     -7.298594       4604499.3      166.36456      0.016386742  
      2100   295.01668      14693.415     -14.526904      4528259.4      165.44124      0.016662637  
      2200   287.64639      14560.528      24.318145      4450149.4      164.48446      0.016955103  
      2300   296.47588      14391.824     -0.16408043     4385787.1      163.68763      0.017203923  
      2400   297.28196      14485.289      6.9035251      4311259.9      162.75515      0.017501321  
      2500   307.86268      14573.638     -9.7019452      4241083.6      161.86723      0.017790911  
      2600   300.30743      14630.509      19.134987      4164251.9      160.88381      0.018119159  
      2700   291.00547      14600.604      1.9885636      4100023.9      160.05238      0.018403001  
      2800   301.00287      14454.815      3.9808194      4028563.7      159.11706      0.01872944   
      2900   298.53217      14478.452     -3.9065673      3962981.4      158.24889      0.019039388  
      3000   301.98603      14543.474     -7.4592868      3895210.3      157.34163      0.019370647  
      3100   308.46703      14396.298      6.8659469      3827721.9      156.42763      0.01971218   
      3200   302.23697      14212.005     -12.574871      3763748.1      155.55125      0.020047235  
      3300   291.6745       14438.033     -17.551171      3706043.7      154.75221      0.020359377  
      3400   301.77515      14222.527      9.1247496      3640158.2      153.82966      0.020727875  
      3500   300.31192      14441.112      28.227108      3576069.7      152.92154      0.021099349  
      3600   305.50871      14197.666     -3.0453412      3517330.8      152.07964      0.021451705  
      3700   303.53211      14160.226      23.689983      3456214.4      151.19365      0.021831036  
      3800   294.39758      14162.734     -24.874891      3399822.9      150.36685      0.022193139  
      3900   293.79769      14493.014      30.555481      3333040.8      149.37579      0.022637809  
      4000   301.15152      13970.915      15.169076      3283152.6      148.62676      0.022981796  
      4100   301.53771      13920.43      -19.256403      3227019.5      147.77485      0.023381558  
      4200   301.11492      14247.264      20.41012       3168004.1      146.86847      0.023817123  
      4300   306.28233      14195.1       -25.969663      3117265.2      146.08016      0.024204788  
      4400   297.72621      14073.806     -4.6572593      3060310.3      145.18502      0.024655259  
      4500   297.73941      14063.712     -3.0994977      3006951.2      144.33626      0.025092773  
      4600   297.50978      14120.824      3.8259123      2953808.1      143.4809       0.025544226  
      4700   298.9605       14227.803      39.710448      2903744.7      142.66567      0.025984634  
      4800   302.79729      13923.474     -21.953891      2859204.1      141.93246      0.026389422  
      4900   298.08776      13921.023      16.508049      2802331.1      140.98508      0.026924992  
      5000   291.69029      14128.839     -0.57669152     2757570.2      140.23041      0.027362038  
      5100   296.76967      14157.17      -15.542718      2710931.4      139.43534      0.027832774  
      5200   299.78035      14168.482      7.4545059      2659807.3      138.55325      0.028367747  
      5300   295.42268      14338.057     -0.60559024     2614840.6      137.76802      0.02885558   
      5400   302.94066      14053.399     -30.769014      2571825.1      137.00838      0.029338209  
      5500   299.78513      14001.848     -15.63046       2524818.7      136.16853      0.029884419  
      5600   292.80755      14136.957     -29.317706      2482287        135.39958      0.030396462  
      5700   300.48459      14096.005     -4.2994944      2439225        134.61205      0.030933081  
      5800   305.11665      14095.65      -8.6510906      2397185.7      133.83424      0.031475552  
      5900   301.34154      14218.933      37.182919      2355177.5      133.04786      0.032036966  
      6000   301.73102      14140.502      4.8286546      2318639.9      132.35624      0.032541811  
      6100   296.02989      14644.731      12.064388      2276738.6      131.5541       0.033140714  
      6200   296.48383      14083.407      12.431799      2238242.1      130.80842      0.033710715  
      6300   297.05205      14106.89       22.381339      2201487.9      130.08846      0.034273521  
      6400   308.30448      13915.058      10.409696      2166422        129.39406      0.034828275  
      6500   300.14928      14257.036      9.0250045      2128807.7      128.64082      0.035443663  
      6600   304.25823      14076.355     -8.6949841      2094721.9      127.95054      0.036020411  
      6700   297.99008      14111.528     -35.917931      2057693.3      127.19212      0.036668605  
      6800   300.55606      13932.837     -15.403832      2025340.9      126.522        0.037254342  
      6900   299.95463      14076.49       29.449508      1992132.9      125.82669      0.037875355  
      7000   297.42357      14066.823     -1.7614092      1958911.7      125.12333      0.038517683  
      7100   297.8177       14115.79      -5.930024       1926260.1      124.42423      0.03917059   
      7200   302.41344      14166.219      26.846818      1895228        123.75246      0.03981196   
      7300   302.81049      13987.237     -23.433577      1866135.5      123.11597      0.040432617  
      7400   299.80886      13806.926     -30.717335      1834572.4      122.41791      0.041128245  
      7500   295.559        13936.87       31.064217      1805401.2      121.76559      0.041792785  
      7600   296.46145      13959.629     -42.247571      1780899.4      121.21224      0.042367773  
      7700   303.27547      13870.177      1.4354682      1749209.3      120.48896      0.043135343  
      7800   303.45939      14166.741      20.433018      1722233.5      119.86637      0.043810983  
      7900   302.54865      14035.091      94.51332       1696057.6      119.25599      0.044487136  
      8000   296.08172      14312.043     -25.729004      1669019.3      118.61887      0.04520783   
      8100   301.54225      13835.124      2.8174617      1641382.9      117.96051      0.045969007  
      8200   298.3612       13751.296      0.32123141     1616147.6      117.35286      0.04668679   
      8300   304.94075      13979.67       69.99372       1590718.9      116.73412      0.047433107  
      8400   301.51533      14051.678      41.384544      1566394.2      116.13604      0.048169704  
      8500   296.65054      13651.215     -1.0074918      1542444.3      115.5411       0.048917646  
      8600   301.95015      13489.732      29.274226      1518894.4      114.95006      0.049676094  
      8700   299.20055      13332.472      7.8422158      1495706.6      114.3621       0.050446218  
      8800   297.13454      13700.473     -17.343221      1472657.2      113.77161      0.05123578   
      8900   300.58616      13674.388     -1.5074472      1450383.4      113.19509      0.052022619  
      9000   301.99796      13338.485     -24.897361      1427505.4      112.59677      0.052856362  
      9100   297.63346      13812.767     -26.21452       1405286.2      112.00952      0.053692081  
      9200   303.6509       13320.647      23.266054      1382875.4      111.4109       0.054562212  
      9300   293.15464      13595.003      28.862426      1362649.7      110.86507      0.055372077  
      9400   299.90994      13357.177     -22.875486      1343403.9      110.34065      0.056165343  
      9500   299.42556      13199.096     -24.981724      1325181.3      109.83947      0.056937675  
      9600   298.83741      13323.204     -92.031073      1304246.4      109.25799      0.057851599  
      9700   306.26485      13487          41.18515       1285027.6      108.71867      0.058716828  
      9800   302.67606      13362.366      38.36909       1265713.8      108.17125      0.059612798  
      9900   298.98287      13280.909     -10.549702      1245898.3      107.60378      0.060560915  
     10000   294.21217      13326.675      50.478631      1229180.4      107.12032      0.061384598  
     10100   295.8716       13241.414      15.277252      1211210.4      106.59574      0.062295321  
     10200   303.80435      12917.08       102.80061      1195035.6      106.11911      0.063138492  
     10300   295.2994       12905.403     -76.825413      1178878        105.63868      0.064003861  
     10400   301.97525      12795.037     -15.659729      1162194.5      105.13797      0.064922647  
     10500   305.93585      12774.021      5.0798878      1144478.2      104.601        0.065927639  
     10600   296.13409      12854.502     -40.390888      1128104.3      104.09977      0.066884542  
     10700   303.00372      12627.306      50.250325      1111030.3      103.5719       0.06791241   
     10800   302.84454      12750.048     -47.866934      1096158.7      103.10771      0.068833779  
     10900   299.3741       12641.798     -24.523888      1079271.8      102.57549      0.069910791  
     11000   295.24825      12497.105     -34.232551      1063902        102.08624      0.070920763  
     11100   294.10026      12570.807      21.916526      1048676.9      101.59693      0.071950418  
     11200   303.57221      12561.775      44.159588      1033337.3      101.09912      0.0730185    
     11300   301.67197      12407.561      13.118564      1019936        100.66016      0.073977922  
     11400   303.64461      12234.446     -19.002913      1005371.2      100.17872      0.075049636  
     11500   298.35835      12515.586     -43.021488      991644.77      99.720713      0.07608848   
     11600   305.3089       12221.644      4.0538199      978527.95      99.27908       0.077108418  
     11700   300.90408      12271.717      58.222916      964099.8       98.788714      0.078262378  
     11800   301.56901      12465.206     -36.309267      951905.85      98.370451      0.079264922  
     11900   296.74437      12385.089      3.6443589      938639.48      97.911328      0.080385221  
     12000   298.37442      12195.07       36.656983      924903.17      97.431358      0.081579072  
     12100   306.86231      12113.939     -53.653174      912940.25      97.009467      0.082648062  
     12200   295.96779      12354.25      -76.928948      899519.33      96.531747      0.08388118   
     12300   301.80108      11764.252     -91.696849      886628.57      96.068404      0.085100734  
     12400   298.63548      11858.691     -5.394092       874339.99      95.622504      0.086296799  
     12500   297.65014      12094.093      52.257322      862512.43      95.18937       0.08748018   
     12600   300.57523      12388.208      117.31194      851196.56      94.771253      0.088643147  
     12700   304.57916      12084.148      26.979272      841452.16      94.40822       0.089669676  
     12800   304.61725      12215.453      85.371438      830504.52      93.997002      0.090851694  
     12900   294.13491      12200.405     -7.8511235      819530.24      93.581139      0.092068284  
     13000   295.17003      12233.305     -6.7038307      808692.35      93.166786      0.093302159  
     13100   304.21906      11967.276      7.3579045      797479.63      92.734187      0.094614006  
     13200   301.96877      11759.727      53.522285      786910.27      92.32268       0.09588481   
     13300   301.61105      12034.138      72.956807      776396.8       91.909678      0.097183222  
     13400   298.45196      11923.934      53.928956      766299.95      91.509518      0.098463718  
     13500   302.21168      11873.645     -91.218956      756272.35      91.108607      0.099769273  
     13600   298.38423      11645.226      15.741409      747067.11      90.737444      0.10099861   
     13700   295.93552      11788.916      70.396816      737616.74      90.35321       0.10229261   
     13800   294.22005      11521.127      58.682685      727988.81      89.958368      0.10364547   
     13900   302.69709      11339.157     -216.17933      719114.1       89.59132       0.10492458   
     14000   301.40466      11497.027      72.068856      709778.75      89.201946      0.1063046    
     14100   298.60344      11868.043     -43.709288      700405.31      88.807534      0.10772726   
     14200   300.57683      11478.546     -32.379371      691128.39      88.413703      0.10917326   
     14300   296.82562      11652.62       11.428003      682284.86      88.034975      0.11058833   
     14400   298.47457      11462.355      69.292034      673881.27      87.672043      0.11196741   
     14500   302.10384      11725.449      88.44315       666266.13      87.340548      0.11324715   
     14600   306.43662      11554.424     -75.749263      658103.78      86.982415      0.11465174   
     14700   307.21041      11338.91       0.40112674     650556.88      86.648641      0.11598178   
     14800   295.17342      11432.168     -55.819956      643000.45      86.31185       0.11734477   
     14900   296.71237      11230.555     -96.87791       634994.18      85.952118      0.11882431   
     15000   295.52757      11493.375     -9.4002632      626080.22      85.548026      0.12051609   
     15100   301.30337      11343.016     -205.19814      619020.38      85.225256      0.12189056   
     15200   304.4742       11412.516      115.69837      610209.78      84.818982      0.1236505    
     15300   304.85596      11348.927      129.40508      603831.44      84.522417      0.12495663   
     15400   300.21132      11318.714      47.602839      596329.2       84.17091       0.12652867   
     15500   295.42443      11259.526      88.867045      588955.18      83.822527      0.12811288   
     15600   296.74256      10902.424      16.228947      581451.62      83.465025      0.12976616   
     15700   300.43923      11031.329     -58.532116      573688.31      83.091896      0.13152219   
     15800   300.29021      10978.621     -150.38914      567068.95      82.77108       0.13305744   
     15900   306.43945      10829.627      258.89835      560138.38      82.432495      0.13470375   
     16000   304.69834      11253.275     -153.04998      554217.13      82.140999      0.13614293   
     16100   299.50302      10956.518     -36.852484      547036.99      81.784731      0.13792987   
     16200   299.6224       10781.659      168.00349      541047.44      81.485146      0.1394568    
     16300   295.58133      10336.319      48.565614      535309.48      81.196064      0.14095163   
     16400   296.07046      10788.774      23.466702      529203.96      80.886187      0.14257781   
     16500   299.55337      11190.057     -69.341535      522858.18      80.561579      0.14430824   
     16600   306.34273      10624.848      178.35187      517223.96      80.271161      0.14588021   
     16700   301.06326      10537.564     -240.54651      511406.73      79.969089      0.1475396    
     16800   298.23492      10931.874      164.70697      504798.42      79.623145      0.14947104   
     16900   297.68744      10853.084      66.493891      499660.5       79.352084      0.15100802   
     17000   301.60616      10535.282     -123.54325      494373.92      79.071234      0.15262282   
     17100   297.52984      10859.986      30.929605      488327.19      78.747535      0.15451268   
     17200   304.3933       10287.516     -41.013943      482527.81      78.434557      0.15636973   
     17300   301.71917      10599.296     -0.62495266     476910.76      78.12902       0.15821145   
     17400   298.25118      10324.485     -26.568131      472756.5       77.901503      0.1596017    
     17500   296.08373      10364.024     -149.13096      467111.43      77.590193      0.1615305    
     17600   295.60797      10675.132     -35.552604      461921.66      77.301771      0.16334532   
     17700   297.25301      10604.035     -164.91374      457309.23      77.043616      0.16499283   
     17800   300.46926      10320.582      127.64286      451337.03      76.706763      0.16717605   
     17900   305.73014      10648.293      93.664812      446973.04      76.458735      0.16880826   
     18000   304.36031      10901.355     -158.54106      442529.04      76.204496      0.17050348   
     18100   293.60605      10779.287     -39.671499      437310.63      75.90377       0.17253809   
     18200   298.24009      10066.36       64.05045       432440.36      75.62094       0.17448127   
     18300   302.61228      10125.446      345.96064      427733.95      75.345602      0.17640111   
     18400   297.32134      9923.0798      120.77793      424155.7       75.13491       0.17788926   
     18500   301.86073      9721.9855      52.785176      419592.93      74.864522      0.17982368   
     18600   300.97256      9922.6814      199.89146      414822.82      74.579742      0.18189149   
     18700   303.15657      9941.0975     -24.946056      410463.47      74.317571      0.18382328   
     18800   299.08191      10154.547      92.81812       405855.78      74.038437      0.18591023   
     18900   296.87573      10122.29      -32.156794      401782.68      73.789925      0.18779491   
     19000   296.18524      9823.0873     -34.260284      397019.01      73.497139      0.19004818   
     19100   301.92437      9911.59        35.540667      392743.05      73.232327      0.19211732   
     19200   305.5622       9609.9763     -40.652042      388617.54      72.975005      0.19415681   
     19300   297.80052      9176.2055     -86.535735      384790.58      72.734671      0.19608781   
     19400   295.38637      9381.0907     -171.23178      380321.79      72.452004      0.19839185   
     19500   296.91594      9780.4594     -90.115088      375785.98      72.162824      0.20078648   
     19600   299.39903      9633.8768     -146.07246      371669.79      71.898377      0.20301016   
     19700   301.7811       9753.5414     -229.39583      367611.71      71.635745      0.20525119   
     19800   307.57339      9377.0349      275.63674      363511.06      71.368386      0.20756656   
     19900   301.72802      9839.0211     -56.289726      360080.87      71.143193      0.20954388   
     20000   303.60309      9429.0044      146.35468      356445.12      70.902937      0.21168124   
     20100   298.80297      9852.458       66.234085      353084.58      70.67941       0.21369594   
     20200   292.21165      9545.7827     -146.28711      349748.93      70.456132      0.21573402   
     20300   303.86538      9645.9521     -155.60422      345730.88      70.185283      0.21824126   
     20400   301.9499       9500.3354     -175.98695      342509.59      69.966623      0.22029381   
     20500   294.77118      9808.2311     -17.606389      339394.94      69.753893      0.22231546   
     20600   300.2437       9450.3787     -41.365821      336372.06      69.546184      0.22431335   
     20700   297.87369      9422.0184     -194.41275      333184.29      69.325792      0.22645949   
     20800   296.80107      9602.4478     -220.53192      329191.15      69.047727      0.22920647   
     20900   301.67018      9405.3515     -56.119362      325636.45      68.798294      0.23170853   
     21000   305.01235      9531.0657     -125.49346      322266.89      68.560172      0.23413123   
     21100   305.41773      9271.6349     -34.65745       318657.65      68.303263      0.23678309   
     21200   301.39618      9613.1594      229.42265      315120.7       68.04961       0.23944077   
     21300   296.27476      8986.1781     -82.805641      312688.07      67.874051      0.24130356   
     21400   299.14234      8992.4293      61.741591      309954.34      67.675672      0.2434318    
     21500   303.41515      9699.1909      172.28784      307141.69      67.470344      0.24566103   
     21600   298.99242      9498.6188     -59.594248      304430.38      67.271224      0.24784892   
     21700   305.98112      9448.2614      41.625827      301490.27      67.05396       0.25026593   
     21800   297.86678      9651.2861      227.71767      298459.89      66.828543      0.25280697   
     21900   299.26067      9477.249       138.46639      295368.55      66.597013      0.25545287   
     22000   299.05447      9322.7454      372.61834      292297.25      66.365378      0.25813703   
     22100   302.78136      8836.0861     -217.79545      289878.74      66.181833      0.26029071   
     22200   297.34687      9038.0071     -135.47847      286817.33      65.948025      0.26306898   
     22300   297.04705      8740.934      -147.40794      284008.66      65.732052      0.26567057   
     22400   301.25538      8683.9693     -51.726124      280995.45      65.498762      0.26851945   
     22500   296.86032      9359.6438      40.459816      278090.51      65.272271      0.27132441   
     22600   302.28528      9270.5643     -196.61659      275545.71      65.072559      0.27383022   
     22700   304.47775      9582.5078      129.9641       273251.09      64.891424      0.2761297    
     22800   296.44558      9724.9378      188.16058      270719.66      64.690414      0.27871172   
     22900   300.21652      8941.1993      61.090795      268251.81      64.493244      0.2812758    
     23000   299.8599       8799.5128     -168.38918      265715.73      64.289358      0.28396039   
     23100   296.851        8898.8384     -394.88779      263152.97      64.082005      0.28672579   
     23200   294.86481      8914.873       99.948151      260787.55      63.889421      0.28932647   
     23300   295.46568      9114.4502     -167.84925      258326.08      63.687776      0.29208333   
     23400   297.24494      9036.7478     -26.536324      255736.45      63.474245      0.29504102   
     23500   301.71798      8875.105      -183.16242      252986.94      63.245947      0.29824758   
     23600   296.96111      9070.7455     -116.653        250309.18      63.022012      0.30143817   
     23700   302.23775      8667.9439     -110.09251      248210.67      62.845399      0.30398669   
     23800   300.59385      8886.2729     -68.543537      245864.3       62.646742      0.30688775   
     23900   300.11733      8835.5375     -257.42648      243455.5       62.441481      0.30992417   
     24000   293.72779      8552.6776     -169.23486      241059.23      62.235941      0.31300499   
     24100   299.7676       8486.634      -250.70685      238604.78      62.023992      0.31622478   
     24200   303.50666      8539.1485     -196.85786      235871.49      61.786247      0.31988921   
     24300   302.26902      8728.5895      122.58992      233531.56      61.581254      0.32309441   
     24400   301.51173      8562.325      -4.9713052      231608.73      61.411774      0.32577676   
     24500   300.20749      8388.5603      271.10493      229479.73      61.223024      0.32879917   
     24600   303.34383      8200.5732      403.87619      227491.48      61.045695      0.33167283   
     24700   297.36423      8522.861       390.62705      225875.13      60.900773      0.33404626   
     24800   294.96655      8153.5509      144.44369      224254.2       60.754744      0.33646078   
     24900   294.68887      8365.0165     -112.39085      222009.61      60.551363      0.33986251   
     25000   300.85209      8274.4417      58.045682      220055.15      60.373151      0.34288106   
     25100   301.73117      7843.9067      22.871043      218185.95      60.201724      0.34581852   
     25200   304.98487      7893.6593     -120.2089       216364.68      60.033748      0.34872948   
     25300   299.71009      8028.5286      32.198087      214508.07      59.861539      0.35174781   
     25400   299.58509      8426.6887      190.5435       212222.34      59.648158      0.35553628   
     25500   297.98988      8244.1331     -128.553        210368.76      59.473991      0.35866894   
     25600   299.1103       8267.7391      162.42419      208650.18      59.311593      0.36162318   
     25700   303.42807      8235.3449      204.64634      207024.04      59.157107      0.36446368   
     25800   302.90369      8311.4017     -297.94529      205591.35      59.020327      0.36700349   
     25900   295.59097      8275.3146      204.48419      203983.84      58.866099      0.36989568   
     26000   296.48881      8290.6212     -112.79088      202158.05      58.689942      0.37323641   
     26100   302.74086      8181.7933      9.6008225      200295.13      58.509106      0.37670783   
     26200   295.92927      7912.8472      456.09472      198514.77      58.335234      0.38008629   
     26300   304.90898      8600.5657      607.29966      196819.52      58.168704      0.38336006   
     26400   300.19325      7971.3588     -242.94388      195268.42      58.015495      0.38640526   
     26500   295.96348      8091.7679      596.59235      193447.6       57.834606      0.39004228   
     26600   300.87648      8059.9588      337.63985      191988.14      57.688795      0.39300732   
     26700   302.92798      7716.5214      106.53263      190478.83      57.537224      0.39612142   
     26800   303.18649      8175.7629      108.90466      188981.06      57.386018      0.39926087   
     26900   304.40224      7591.5804     -41.499295      187451.98      57.230826      0.40251771   
     27000   296.96986      7633.3798      90.35221       185979.78      57.080606      0.40570402   
     27100   297.82135      7339.1667      81.640639      184203.31      56.898281      0.40961664   
     27200   297.54363      7372.644      -121.05588      182745.24      56.747756      0.41288486   
     27300   300.90252      7606.9152      17.161496      181285.17      56.59622       0.41621023   
     27400   297.32268      7784.3483      156.33193      179703.69      56.431162      0.41987309   
     27500   303.85977      8132.5721     -57.401406      178007.54      56.253057      0.42387386   
     27600   303.27367      7945.6958      447.47139      176474.24      56.091077      0.42755668   
     27700   301.01106      7615.2898     -171.58909      175173.11      55.952885      0.43073245   
     27800   301.96658      7823.759       504.41515      173676.2       55.79305       0.43444492   
     27900   299.04578      7794.3731      35.56358       172519.43      55.668904      0.43735795   
     28000   300.7712       7899.8328     -78.949197      171055.03      55.510944      0.44110217   
     28100   298.38458      7788.3108     -337.28113      169448.5       55.336614      0.44528421   
     28200   293.05315      7756.4625     -376.64853      167772.26      55.153539      0.44973312   
     28300   298.2656       7668.674       90.175936      166149.37      54.975125      0.45412597   
     28400   303.53143      7482.1415     -83.298437      164696.98      54.814469      0.45813071   
     28500   300.08656      7475.5767      427.22934      163436.41      54.674263      0.46166421   
     28600   296.70873      7227.4522      301.28007      162091.19      54.523845      0.46549564   
     28700   297.65369      7202.0428     -373.0068       160707.3       54.368231      0.46950414   
     28800   302.64382      7550.753      -147.3288       159338.52      54.213435      0.47353736   
     28900   300.46448      7674.3739     -189.87995      158056.85      54.067685      0.47737724   
     29000   303.01613      7972.8628     -33.483707      156562.05      53.896699      0.48193508   
     29100   296.44616      7480.7687     -198.15506      155259.05      53.746762      0.48597967   
     29200   296.45287      7854.8242      386.30607      154089.4       53.611454      0.48966862   
     29300   300.57214      7240.4565     -77.007928      152776.09      53.458708      0.49387797   
     29400   300.94883      7147.972       364.8513       151611.65      53.322544      0.49767113   
     29500   307.22177      7693.7555     -398.64727      150476.24      53.189101      0.50142628   
     29600   297.31854      7403.6676      51.872878      149203.86      53.038759      0.50570234   
     29700   300.75139      6904.1847      24.302717      147946.41      52.88934       0.5100005    
     29800   301.03869      6880.5104     -318.6399       146890.83      52.763252      0.51366545   
     29900   296.99447      6898.1344      81.000241      145633.53      52.61228       0.51810009   
     30000   302.23232      6811.2473     -42.968299      144580.99      52.485225      0.5218718    
     30100   304.61121      6870.3729     -196.51372      143615.16      52.368094      0.52538145   
     30200   305.59691      6902.8349      1367.6367      142472.2       52.2288        0.52959624   
     30300   302.0197       6801.9956     -890.14067      141750.86      52.140506      0.53229124   
     30400   299.41665      6848.635      -409.43857      140496.71      51.986278      0.53704275   
     30500   298.04484      7103.0883      616.66972      139191.41      51.824781      0.54207901   
     30600   302.72003      6448.4404     -914.15968      138363.05      51.721769      0.54532439   
     30700   306.19463      6622.2849     -293.40625      137415.88      51.603478      0.54908315   
     30800   301.98006      6579.847       220.91617      136390.67      51.474826      0.55321045   
     30900   300.43876      6720.6952      323.78029      135294.65      51.336573      0.557692     
     31000   295.36018      6377.1356      43.832404      134148.11      51.191146      0.56245849   
     31100   296.53331      6470.8563     -259.34932      132999.57      51.044632      0.56731569   
     31200   301.95041      7480.4617     -101.13557      131863.1       50.898826      0.57220513   
     31300   302.6561       7007.1294     -537.84918      131070.24      50.796607      0.57566645   
     31400   298.72077      6881.9257      35.750905      130205.76      50.684683      0.57948852   
     31500   299.28983      6354.5047      34.541482      129192.34      50.552844      0.58403418   
     31600   296.55072      6558.5491     -140.30264      128143.82      50.415711      0.58881295   
     31700   299.11705      6620.204       235.68098      127230.27      50.295618      0.59304083   
     31800   296.7783       6848.4669     -737.85287      126317.44      50.175045      0.5973264    
     31900   300.70994      6667.4153      159.48592      125242.6       50.032326      0.60245269   
     32000   299.24935      6793.973       64.97266       124254.9       49.900456      0.60724156   
     32100   303.78715      6627.8965     -205.1061       123537.62      49.804251      0.61076733   
     32200   303.45846      6462.3256      212.193        122844.24      49.710897      0.61421473   
     32300   299.57738      6904.4343     -363.87727      122216.11      49.626025      0.61737148   
     32400   297.54892      6547.4148     -114.80938      121180.33      49.485433      0.62264845   
     32500   305.58309      6212.9905     -45.393757      120211.53      49.353207      0.62766644   
     32600   303.38725      6523.8123      110.06698      119344.72      49.234296      0.63222523   
     32700   301.44058      6460.8108      229.5013       118516.58      49.120153      0.63664291   
     32800   300.81578      6113.1535      74.71748       117694.65      49.006336      0.641089     
     32900   298.8275       6353.3086      1337.9654      116899.34      48.895702      0.64545053   
     33000   295.66562      6584.0915     -361.47469      116315.3       48.814136      0.64869148   
     33100   302.39732      6610.5786      61.471673      115456.9       48.693758      0.65351438   
     33200   305.58136      6132.0081     -248.85943      114687.39      48.585338      0.65789918   
     33300   304.36179      6516.8011      58.128348      113874.97      48.470343      0.66259285   
     33400   297.59128      6206.4202      225.58722      113124.01      48.363561      0.66699138   
     33500   297.1012       6189.4658      336.34181      112406.63      48.26111       0.67124816   
     33600   299.56793      6631.3437     -67.859004      111735.75      48.164906      0.67527842   
     33700   298.41398      6647.6072      372.14622      111050.02      48.066174      0.67944824   
     33800   301.6785       6566.1063     -224.05981      110270.77      47.95348       0.68424974   
     33900   302.99269      6192.2186      380.89722      109504.56      47.842156      0.68903742   
     34000   302.56086      6663.3082     -1034.4046      108848.22      47.746379      0.69319225   
     34100   298.56528      6605.5056     -693.43279      108037.7       47.627573      0.6983927    
     34200   299.18402      6680.8628      346.0583       107349.06      47.526162      0.70287291   
     34300   305.69457      6567.2565     -65.174161      106785.28      47.442816      0.70658374   
     34400   300.50917      6723.1257     -340.92196      106199.85      47.355959      0.7104788    
     34500   297.68185      6884.3524      574.21427      105424.97      47.240502      0.71570084   
     34600   297.22104      6295.7521     -156.85046      104770.16      47.142492      0.72017396   
     34700   295.59492      5968.7316      470.41201      104148.38      47.049048      0.72447351   
     34800   301.10737      6244.2507      8.9927749      103549.26      46.958658      0.72866517   
     34900   299.84406      5692.2574      897.07769      102788.31      46.843346      0.73405956   
     35000   299.93807      6013.5059      371.70503      102330.51      46.773699      0.73734356   
     35100   293.29002      6619.6022      235.52465      101791.35      46.691407      0.74124904   
     35200   296.66281      6060.5568      875.89163      101259.36      46.609924      0.74514339   
     35300   303.69933      6882.568       224.25703      100682.44      46.521236      0.74941313   
     35400   299.93228      6065.8615     -79.237366      100049.67      46.423572      0.75415285   
     35500   301.70411      6337.7354      397.76942      99400.304      46.322917      0.7590796    
     35600   295.3715       6741.0189      1365.3013      98787.675      46.227555      0.763787     
     35700   299.34606      5738.8675      989.64606      98309.586      46.15286       0.76750138   
     35800   303.72051      6078.67        654.20393      97973.306      46.100176      0.77013572   
     35900   299.29012      6335.6259      912.22251      97767.236      46.067833      0.77175898   
     36000   303.57252      6148.025      -240.94485      97428.066      46.014499      0.77444566   
     36100   300.16692      6356.8556      1434.176       97067.029      45.95759       0.77732618   
     36200   301.97856      6131.3527     -593.56242      96795.113      45.914636      0.77950983   
     36300   297.31758      6363.5067      72.096855      96358.41       45.845482      0.78304263   
     36400   297.09635      5665.5888     -672.21643      95824.304      45.760619      0.78740715   
     36500   305.39073      5710.0479      705.42429      95258.187      45.670325      0.79208669   
     36600   304.41412      6288.6401      124.39419      94899.925      45.612998      0.79507695   
     36700   302.37077      6343.9217      1889.9213      94486.491      45.546664      0.79855587   
     36800   300.84869      6356.4164      196.25042      94219.304      45.503692      0.80082042   
     36900   302.52597      5456.8561     -272.98551      94009.915      45.469958      0.80260409   
     37000   297.87524      5553.1252      1241.0855      93466.14       45.382119      0.80727354   
     37100   300.18503      5847.6013      120.49243      93011.183      45.308365      0.81122227   
     37200   305.31021      5818.9044      520.79668      92491.65       45.223848      0.81577897   
     37300   306.31703      5706.5013      362.26022      91975.77       45.139611      0.82035456   
     37400   302.12833      5756.1267      481.01233      91494.281      45.060705      0.82467168   
     37500   299.17732      5298.0182      1318.9801      91160.71       45.005877      0.82768928   
     37600   297.60768      5583.1366      640.27447      90786.763      44.944254      0.8310985    
     37700   300.52719      6318.2261      310.29279      90263.482      44.857737      0.83591659   
     37800   303.69165      5091.1578      559.79391      89857.633      44.790405      0.83969208   
     37900   298.36927      5306.7977      798.57181      89460.267      44.724284      0.84342183   
     38000   298.90313      5620.6702      467.9303       88974.664      44.643214      0.84802504   
     38100   293.92651      5634.5167      989.28848      88464.016      44.557644      0.85292016   
     38200   307.40861      5231.7116     -323.49795      87987.923      44.477567      0.85753522   
     38300   302.5488       5734.0319      5.2762622      87537.608      44.40156       0.86194658   
     38400   300.19255      5684.7902      413.56658      87213.517      44.346696      0.86514963   
     38500   300.97327      5435.7179     -133.19955      86836.015      44.282619      0.8689107    
     38600   298.54895      5075.8832     -903.62265      86501.907      44.225752      0.87226681   
     38700   291.32323      5839.2805      768.41517      86046.659      44.148031      0.87688172   
     38800   297.59454      5648.7905      965.87333      85838.625      44.112423      0.87900688   
     38900   304.20542      5177.8083      691.87659      85728.746      44.093593      0.88013351   
     39000   300.92572      5881.2383      12.620099      85493.495      44.053223      0.88255536   
     39100   299.12545      5431.2167     -66.079212      85094.261      43.984544      0.88669602   
     39200   296.58202      5434.3957      1228.4859      84661.659      43.909881      0.89122683   
     39300   295.11849      5888.3188      214.75451      84306.612      43.848413      0.89498013   
     39400   300.49221      5618.2025      1679.749       83994.565      43.794247      0.89830506   
     39500   301.8335       5375.0513      1293.4101      83782.217      43.75731       0.90058183   
     39600   304.75614      5334.4446     -400.80857      83474.953      43.703752      0.9038968    
     39700   300.91743      5301.1028      427.82796      83241.883      43.66304       0.90642762   
     39800   298.5489       5423.7758     -238.72057      82922.661      43.607154      0.90991704   
     39900   296.78118      5599.7324      308.13912      82552.486      43.542168      0.91399722   
     40000   300.71689      5928.6068      681.91957      82308.245      43.499184      0.91670941   
     40100   303.94537      5844.3223      776.07442      82050.413      43.453716      0.91959004   
     40200   303.75119      5098.8117      1274.1131      81694.766      43.390842      0.92359334   
     40300   299.66751      5503.2165      21.208201      81341.896      43.328278      0.9276       
     40400   298.16734      4967.8395     -457.27214      81031.677      43.273127      0.93115119   
     40500   300.57364      5205.4398      29.142081      80661.967      43.207215      0.93541907   
     40600   299.42294      6352.7598      1875.1024      80390.688      43.158723      0.93857565   
     40700   302.05024      5839.7218      596.9666       80178.711      43.120755      0.94105707   
     40800   304.15998      5875.1723      1747.1241      79949.263      43.079583      0.94375783   
     40900   304.63344      6164.3114      1588.3506      79711.749      43.03688       0.9465699    
     41000   301.57021      5963.0403      724.71455      79487.99       42.996573      0.94923451   
     41100   301.05447      5856.8924      1015.9164      79188.619      42.942526      0.95282306   
     41200   294.6913       6131.2029      1202.8514      78964.558      42.901987      0.95552669   
     41300   299.49322      5459.7844      284.34152      78711.99       42.856197      0.95859274   
     41400   302.47211      5859.7038      683.44333      78327.734      42.786345      0.96329536   
     41500   303.50266      6088.6352      1215.5073      78031.975      42.732424      0.96694647   
     41600   301.46629      5819.5664      606.80527      77807.102      42.691336      0.96974107   
     41700   301.87712      5589.0909      275.72588      77613.42       42.655883      0.97216103   
     41800   301.17812      5593.9063      975.7325       77420.012      42.620422      0.97458965   
     41900   297.74164      5593.3098      528.62892      77158.867      42.572447      0.97788817   
     42000   302.43115      6199.2976      800.66626      76951.889      42.534346      0.9805184    
     42100   303.33881      5630.9583     -24.886723      76861.482      42.517683      0.9816717    
     42200   302.5635       5303.8841      699.59959      76612.231      42.471673      0.98486549   
     42300   299.49924      5353.0904      434.21528      76456.245      42.442829      0.98687482   
     42400   302.00554      5332.8604      287.47528      76288.965      42.411852      0.98903875   
     42500   297.98973      5638.6543      1745.5668      76065.36       42.370375      0.99194617   
     42600   301.54309      5642.156      -587.74802      76065.883      42.370472      0.99193935   
     42700   298.88926      5833.4922      466.36187      76000.204      42.358274      0.99279658   
     42800   300.61316      6217.2465      1041.3324      75955.871      42.350036      0.99337604   
     42900   296.09535      5881.2676     -106.30463      75985.615      42.355563      0.99298719   
     43000   303.54293      5634.3627     -208.55571      75957.028      42.350251      0.99336091   
     43100   300.49426      5009.1947      188.72254      75841.96       42.328854      0.99486805   
     43200   298.0386       5104.4556     -397.80211      75589.543      42.281843      0.99819022   
     43300   304.54271      5873.2254      1403.7421      75445.374      42.254945      1.0000977    
     43400   297.67978      5453.6114      778.04353      75274.224      42.222968      1.0023716    
     43500   299.83466      5265.8834     -521.80206      75142.703      42.198363      1.004126     
     43600   299.71575      5184.7474      877.2428       75094.663      42.189368      1.0047684    
     43700   303.0949       5855.2986      895.90972      74826.241      42.139041      1.0083727    
     43800   301.06243      5977.1722      476.86927      74700.141      42.115356      1.010075     
     43900   304.43015      5626.2678     -386.66426      74672.435      42.110148      1.0104497    
     44000   294.4097       5610.5864     -162.57229      74624.764      42.101185      1.0110952    
     44100   294.43305      5949.0715      262.88237      74498.334      42.077396      1.0128111    
     44200   299.34013      5877.9322      643.77848      74336.072      42.046825      1.0150219    
     44300   299.53357      5530.3909      36.624949      74266.567      42.033716      1.0159719    
     44400   299.6          5380.07       -878.12047      74085.131      41.999458      1.01846      
     44500   297.80997      5632.6539      350.35316      73786.749      41.942997      1.0225785    
     44600   296.49463      5242.5764      727.91993      73527.293      41.893778      1.0261869    
     44700   297.23447      5303.0904      1192.8056      73269.153      41.844693      1.0298023    
     44800   302.69425      4862.4368      1490.3495      73115.164      41.815358      1.0319712    
     44900   300.34661      5357.5263      1771.8664      73105.801      41.813573      1.0321034    
     45000   304.80199      5542.792       196.76444      73213.284      41.834055      1.0305881    
     45100   300.38208      5421.5849     -18.758199      73112.089      41.814772      1.0320146    
     45200   302.25521      5691.746       898.93586      72917.074      41.777561      1.0347747    
     45300   300.85933      5682.6506      273.13234      72833.576      41.761608      1.035961     
     45400   298.68063      5852.7096      1039.232       72762.64       41.748046      1.0369709    
     45500   301.62676      5071.0044     -164.24329      72788.833      41.753054      1.0365978    
     45600   301.60716      5153.984       335.42202      72662.167      41.728821      1.0384048    
     45700   301.35659      5387.2179     -187.91736      72498.266      41.697422      1.0407524    
     45800   300.94098      5565.1415      1367.9429      72232.903      41.646485      1.0445758    
     45900   296.88234      6071.8568      426.87527      72173.944      41.635151      1.0454291    
     46000   299.27622      5371.3083     -288.70143      72237.522      41.647373      1.044509     
     46100   296.62497      5176.009       499.22255      72264.721      41.652599      1.0441159    
     46200   301.21365      4690.9536      244.38207      72326.668      41.664498      1.0432216    
     46300   302.75856      5065.3109      123.17529      72282.465      41.656008      1.0438596    
     46400   298.32953      5165.5819      865.43809      72186.136      41.637495      1.0452525    
     46500   300.75829      5055.2465      2367.8336      72061.307      41.613481      1.0470632    
     46600   298.12273      4967.6921      1089.4535      72093.755      41.619726      1.0465919    
     46700   299.84908      4914.9305     -280.35307      72026.708      41.60682       1.0475662    
     46800   306.1641       5038.2368      754.98568      71981.843      41.598179      1.0482191    
     46900   304.75174      5225.7239      624.83449      71944.68       41.591019      1.0487606    
     47000   299.35973      4941.0117      1013.9216      71880.769      41.5787        1.049693     
     47100   297.07471      4963.5719      434.26527      71778.945      41.559058      1.0511821    
     47200   298.93817      4714.0667      410.53894      71792.357      41.561646      1.0509857    
     47300   298.8322       4857.9849      816.39829      71812.6        41.565552      1.0506895    
     47400   299.37574      4907.9368      1399.5478      71715.448      41.546799      1.0521128    
     47500   294.56404      4855.894       571.92863      71471.11       41.499562      1.0557097    
     47600   302.71178      5413.6995      651.60495      71265.885      41.459802      1.0587498    
     47700   300.14789      5284.0476      881.64081      71062.34       41.420293      1.0617824    
     47800   298.72109      5478.1859      805.28006      71011.766      41.410465      1.0625386    
     47900   299.61735      5359.8362      999.60362      70955.198      41.399466      1.0633857    
     48000   295.48453      5899.4916      528.39033      70965.689      41.401506      1.0632285    
     48100   305.7967       4756.7713      348.49809      71060.235      41.419884      1.0618139    
     48200   309.07672      5034.8785      814.30221      71057.28       41.41931       1.061858     
     48300   303.5561       5853.9182      1274.0031      71032.419      41.414479      1.0622297    
     48400   297.62087      5972.0254      1375.1007      70843.829      41.377795      1.0650574    
     48500   299.28489      5749.0225      2435.2703      70772.766      41.363955      1.0661268    
     48600   299.53071      5121.9507      298.3469       70874.732      41.38381       1.064593     
     48700   294.99578      5526.8627      1991.7993      70842.768      41.377588      1.0650733    
     48800   298.75529      5839.3303      778.14426      70931.712      41.394898      1.0637378    
     48900   303.0854       5734.747       215.50253      71033.464      41.414682      1.062214     
     49000   302.81654      5233.6171     -87.285702      71021.677      41.412391      1.0623903    
     49100   297.31458      5434.5306      1988.2949      70881.511      41.38513       1.0644912    
     49200   299.50794      5547.2571      704.39299      70825.66       41.374257      1.0653306    
     49300   303.76356      5120.2032      1431.2409      70795.263      41.368337      1.065788     
     49400   300.58632      5214.9568      2248.886       70673.094      41.344528      1.0676304    
     49500   301.75188      5551.3711      292.34431      70620.153      41.334201      1.0684307    
     49600   299.45198      5140.3347      2039.2501      70600.905      41.330446      1.068722     
     49700   304.11839      5866.1859      839.86844      70631.152      41.336347      1.0682644    
     49800   300.48727      5665.2051      669.26425      70657.847      41.341554      1.0678608    
     49900   300.77839      5308.0675      343.42664      70658.902      41.34176       1.0678448    
     50000   304.14215      4998.3668      247.22678      70669.103      41.343749      1.0676907    
     50041   296.33528      5777.6741      2025.5801      70624.008      41.334953      1.0683724    
Loop time of 539.276 on 8 procs for 50000 steps with 6684 atoms

Performance: 8.011 ns/day, 2.996 hours/ns, 92.717 timesteps/s
75.6% CPU use with 1 MPI tasks x 8 OpenMP threads

MPI task timing breakdown:
Section |  min time  |  avg time  |  max time  |%varavg| %total
---------------------------------------------------------------
Pair    | 300.86     | 300.86     | 300.86     |   0.0 | 55.79
Bond    | 95.383     | 95.383     | 95.383     |   0.0 | 17.69
Neigh   | 53.226     | 53.226     | 53.226     |   0.0 |  9.87
Comm    | 6.6158     | 6.6158     | 6.6158     |   0.0 |  1.23
Output  | 0.19388    | 0.19388    | 0.19388    |   0.0 |  0.04
Modify  | 81.516     | 81.516     | 81.516     |   0.0 | 15.12
Other   |            | 1.485      |            |       |  0.28

Nlocal:           6684 ave        6684 max        6684 min
Histogram: 1 0 0 0 0 0 0 0 0 0
Nghost:          18281 ave       18281 max       18281 min
Histogram: 1 0 0 0 0 0 0 0 0 0
Neighs:    2.30963e+06 ave 2.30963e+06 max 2.30963e+06 min
Histogram: 1 0 0 0 0 0 0 0 0 0

Total # of neighbors = 2309626
Ave neighs/atom = 345.54548
Ave special neighs/atom = 11.251945
Neighbor list builds = 3548
Dangerous builds = 978
unfix             1

#second minimization
minimize                 1.0e-5 1.0e-5 10000 10000
Switching to 'neigh_modify every 1 delay 0 check yes' setting during minimization
Generated 153 of 153 mixed pair_coeff terms from geometric mixing rule
Last active /omp style is dihedral_style harmonic/omp
Per MPI rank memory allocation (min/avg/max) = 46.64 | 46.64 | 46.64 Mbytes
   Step          Temp          PotEng         Press          Volume           Lx          Density    
     50041   296.33528      5777.6741      2025.5801      70624.008      41.334953      1.0683724    
     50056   296.33528      492.95619      2138.1617      70624.008      41.334953      1.0683724    
Loop time of 2.95605 on 8 procs for 15 steps with 6684 atoms

183.9% CPU use with 1 MPI tasks x 8 OpenMP threads

Minimization stats:
  Stopping criterion = linesearch alpha is zero
  Energy initial, next-to-last, final = 
       5777.6741317005   492.956194403789    492.95619440379
  Force two-norm initial, final = 2745.3882 194.19258
  Force max component initial, final = 108.44257 11.14214
  Final line search alpha, max atom move = 2.6120503e-13 2.910383e-12
  Iterations, force evaluations = 15 127

MPI task timing breakdown:
Section |  min time  |  avg time  |  max time  |%varavg| %total
---------------------------------------------------------------
Pair    | 2.6116     | 2.6116     | 2.6116     |   0.0 | 88.35
Bond    | 0.23569    | 0.23569    | 0.23569    |   0.0 |  7.97
Neigh   | 0          | 0          | 0          |   0.0 |  0.00
Comm    | 0.024657   | 0.024657   | 0.024657   |   0.0 |  0.83
Output  | 0          | 0          | 0          |   0.0 |  0.00
Modify  | 0.066838   | 0.066838   | 0.066838   |   0.0 |  2.26
Other   |            | 0.01731    |            |       |  0.59

Nlocal:           6684 ave        6684 max        6684 min
Histogram: 1 0 0 0 0 0 0 0 0 0
Nghost:          18288 ave       18288 max       18288 min
Histogram: 1 0 0 0 0 0 0 0 0 0
Neighs:    2.31005e+06 ave 2.31005e+06 max 2.31005e+06 min
Histogram: 1 0 0 0 0 0 0 0 0 0

Total # of neighbors = 2310048
Ave neighs/atom = 345.60862
Ave special neighs/atom = 11.251945
Neighbor list builds = 0
Dangerous builds = 0


#Compression from 0 to 4000 atm
fix                              1 all npt temp 300.0 300.0 100.0 iso 0.0 4000.0 1000.0
run                              250000
Generated 153 of 153 mixed pair_coeff terms from geometric mixing rule
Last active /omp style is dihedral_style harmonic/omp
Per MPI rank memory allocation (min/avg/max) = 44.39 | 44.39 | 44.39 Mbytes
   Step          Temp          PotEng         Press          Volume           Lx          Density    
     50056   296.33528      492.95619      2138.1617      70624.008      41.334953      1.0683724    
     50100   193.62964      2571.4425      2837.9073      70607.295      41.331693      1.0686253    
     50200   187.59787      3029.3731      3441.5676      70619.291      41.334033      1.0684438    
     50300   201.43829      3498.5495      1737.1174      70694.587      41.348718      1.0673058    
     50400   221.76088      3087.4647      1008.88        70986.117      41.405478      1.0629225    
     50500   247.23192      3500.2044      1217.5793      71476.602      41.500625      1.0556286    
     50600   263.28492      3941.1238      622.35656      71910.723      41.584475      1.0492558    
     50700   286.15198      4534.2255      899.71966      72333.87       41.665881      1.0431177    
     50800   297.02932      5601.3448      917.10747      72913.719      41.77692       1.0348223    
     50900   311.97269      5386.5674      792.02492      73512.299      41.89093       1.0263962    
     51000   312.0451       5102.98        1116.7851      74055.955      41.993944      1.0188612    
     51100   303.44748      4295.8763     -579.88252      74534.964      42.084291      1.0123134    
     51200   294.30209      5114.3292     -960.25613      74549.034      42.086939      1.0121223    
     51300   293.77476      5356.9684      1276.0111      74373.437      42.053868      1.014512     
     51400   304.44296      4414.1636     -13.783417      74200.119      42.021176      1.0168817    
     51500   306.16741      4467.8826     -488.06166      74085.277      41.999485      1.018458     
     51600   301.07577      4805.7019     -379.56914      73914.965      41.967277      1.0208047    
     51700   300.06992      4640.0902     -430.93125      73734.347      41.933066      1.0233052    
     51800   294.90458      4877.7913      170.56872      73617.787      41.910958      1.0249254    
     51900   298.71635      4888.1413     -117.53224      73528.657      41.894037      1.0261678    
     52000   303.58724      5512.3877     -38.423132      73482.921      41.885349      1.0268065    
     52100   301.50402      5141.0231     -176.21326      73286.151      41.847929      1.0295635    
     52200   302.99946      4817.2314      633.4886       73032.634      41.799619      1.0331374    
     52300   295.27685      4777.8468      10.250384      73139.084      41.819918      1.0316337    
     52400   300.35815      5103.663       1106.5464      73371.669      41.8642        1.0283634    
     52500   300.51151      4377.3215     -418.85441      73662.25       41.919394      1.0243068    
     52600   300.83242      4647.5674     -1103.9542      73751.876      41.936388      1.023062     
     52700   301.26017      4816.1094      786.3996       73584.693      41.904677      1.0253864    
     52800   304.38917      4932.5491     -969.64968      73465.057      41.881954      1.0270562    
     52900   301.74478      5527.8236      989.86417      73082.285      41.809089      1.0324355    
     53000   293.88941      4807.8149     -617.87689      72881.56       41.770777      1.0352789    
     53100   295.34047      4939.7813      160.45074      72745.332      41.744735      1.0372176    
     53200   298.36491      4955.5205     -514.55006      72503.264      41.69838       1.0406806    
     53300   304.49942      5258.9691     -698.26829      72336.148      41.666318      1.0430849    
     53400   299.10359      5434.6555      363.81211      72160.275      41.632523      1.0456272    
     53500   302.54152      4490.635      -372.03702      72160.737      41.632611      1.0456205    
     53600   296.2816       4857.9121     -666.97975      72302.199      41.659799      1.0435747    
     53700   298.31671      5307.0773     -602.9136       72469.915      41.691986      1.0411595    
     53800   300.77225      4175.8015     -434.29397      72410.595      41.680607      1.0420125    
     53900   305.11805      4976.6403     -346.90714      72117.18       41.624233      1.046252     
     54000   298.51427      5262.8975     -734.20212      71939.466      41.590014      1.0488366    
     54100   297.13131      5340.189      -201.32053      71741.731      41.551874      1.0517274    
     54200   301.14224      5059.0535      359.42868      71601.746      41.524831      1.0537836    
     54300   300.70879      5249.011      -758.58616      71505.018      41.506124      1.055209     
     54400   305.36847      5127.8768     -49.876194      71277.906      41.462133      1.0585713    
     54500   299.01147      5448.4027      1160.2457      71294.109      41.465275      1.0583307    
     54600   301.63297      4092.7448     -245.6805       71558.163      41.516404      1.0544254    
     54700   301.28961      4874.5511     -753.97033      71644.682      41.533129      1.053152     
     54800   294.21268      5601.8224      115.79487      71577.891      41.520219      1.0541347    
     54900   298.80219      4974.2369      249.11022      71359.9        41.478026      1.0573549    
     55000   302.51482      5670.8384     -510.04872      71231.635      41.45316       1.0592589    
     55100   295.64708      5492.0632      763.30119      71353.824      41.476849      1.057445     
     55200   301.04636      5038.5217     -1232.3928      71553.762      41.515553      1.0544902    
     55300   303.15666      5696.5986      571.72776      71661.944      41.536465      1.0528984    
     55400   297.11785      5738.8538     -444.86841      71700.753      41.543961      1.0523285    
     55500   300.94178      5547.4876     -693.09165      71702.609      41.54432       1.0523012    
     55600   301.04782      5626.6349      1278.2678      71617.866      41.527947      1.0535464    
     55700   299.54196      5267.8752     -157.67852      71580.343      41.520693      1.0540986    
     55800   301.62407      5307.0998      455.85275      71440.898      41.493713      1.0561561    
     55900   300.11469      5318.3255      324.01067      71201.842      41.447379      1.0597021    
     56000   302.82915      5301.8974      1586.0911      71009.37       41.409999      1.0625745    
     56100   296.87602      5394.3738      1191.3445      70949.646      41.398386      1.0634689    
     56200   299.97497      5116.5102      1402.6323      70998.646      41.407914      1.062735     
     56300   300.00836      5035.7575      1142.1438      71270.942      41.460783      1.0586747    
     56400   302.72368      4982.4816      1091.6759      71446.713      41.494839      1.0560702    
     56500   301.93655      5142.5677      756.17874      71438.099      41.493171      1.0561975    
     56600   301.99993      5890.645       65.457181      71558.057      41.516383      1.0544269    
     56700   302.32891      4791.1748     -408.02716      71565.207      41.517766      1.0543216    
     56800   296.4599       5186.4495     -340.94159      71360.439      41.47813       1.0573469    
     56900   299.82137      5019.7657     -56.876297      71138.676      41.435119      1.0606431    
     57000   301.57849      5335.3839      730.18735      70963.319      41.401045      1.063264     
     57100   301.18382      5438.8314     -704.36457      70943.135      41.39712       1.0635665    
     57200   296.13509      4777.9337      966.28096      70777.94       41.364963      1.0660489    
     57300   297.04638      5607.6386      62.892485      70768.153      41.363056      1.0661963    
     57400   299.20317      4908.8584      121.36555      70809.186      41.371049      1.0655784    
     57500   298.9045       4308.7628     -737.12718      70786.137      41.36656       1.0659254    
     57600   301.12499      4659.1464      914.05969      70667.179      41.343374      1.0677197    
     57700   301.61144      5678.8614      137.77264      70662.011      41.342366      1.0677978    
     57800   303.40023      5121.9405     -55.388217      70794.399      41.368169      1.065801     
     57900   296.33251      4895.1981      207.37727      70986.925      41.405636      1.0629104    
     58000   298.57174      5080.0756     -220.34834      70974.579      41.403235      1.0630953    
     58100   298.32847      5478.9774     -408.56287      70835.045      41.376085      1.0651894    
     58200   299.34862      5583.1972      1041.845       70800.348      41.369328      1.0657115    
     58300   303.74794      5620.9266      663.33605      70767.773      41.362982      1.066202     
     58400   300.17152      5060.0147      258.33442      70782.547      41.36586       1.0659795    
     58500   302.01376      4972.5977     -319.57812      70898.825      41.388499      1.0642312    
     58600   295.29095      5001.1737     -296.44567      70890.034      41.386789      1.0643632    
     58700   294.90715      5247.243      -497.84515      70958.993      41.400204      1.0633288    
     58800   301.59972      5087.4195     -2.9675962      70945.946      41.397667      1.0635244    
     58900   303.34735      5011.7224     -668.82429      70877.168      41.384285      1.0645564    
     59000   301.98673      5565.6282      646.13311      70849.809      41.378959      1.0649675    
     59100   302.33784      5002.8631      913.85518      70723.259      41.354308      1.0668731    
     59200   293.65862      5111.3481      730.84596      70725.794      41.354802      1.0668349    
     59300   298.73039      4233.7022      907.7279       70705.987      41.350941      1.0671337    
     59400   300.82676      5215.2492      230.07468      70472.969      41.305466      1.0706622    
     59500   300.06137      5213.2703      807.97468      70427.863      41.296651      1.0713479    
     59600   304.01915      4943.7811     -130.94522      70426.751      41.296434      1.0713648    
     59700   297.74436      4957.392      -527.09143      70264.752      41.264746      1.0738349    
     59800   296.91557      5319.0027     -7.0709646      70076.468      41.227855      1.0767201    
     59900   295.77977      5523.6409     -78.435136      69883.128      41.189904      1.079699     
     60000   297.93201      4789.1064     -268.605        69815.541      41.176621      1.0807442    
     60100   299.90651      4803.9166     -373.32471      70006.563      41.214141      1.0777953    
     60200   303.04967      4653.7039      583.50364      69987.031      41.210308      1.0780961    
     60300   297.23056      5051.4377      807.69254      69927.691      41.198657      1.0790109    
     60400   301.14937      5341.718       964.88908      69962.541      41.2055        1.0784734    
     60500   295.3961       4909.3755     -1348.9214      70056.693      41.223976      1.077024     
     60600   298.96042      5350.1899     -21.142281      70093.368      41.231168      1.0764605    
     60700   296.51237      5236.2962      618.61366      70126.362      41.237637      1.075954     
     60800   300.90744      5599.3603      1201.3695      70207.669      41.253568      1.074708     
     60900   297.8595       5105.511      -63.59213       70307.223      41.273058      1.0731862    
     61000   301.26601      5117.4249     -866.59125      70194.841      41.251055      1.0749044    
     61100   302.22928      5078.4419     -731.312        69897.908      41.192808      1.0794707    
     61200   297.31173      5240.042       138.34104      69499.894      41.114472      1.0856526    
     61300   303.40055      5580.9316     -275.42584      69303.146      41.075638      1.0887347    
     61400   301.20118      5368.5492     -1085.7922      69251.875      41.065506      1.0895408    
     61500   300.88186      4700.6473     -1509.4358      69390.18       41.092826      1.0873692    
     61600   298.26389      4566.0002     -638.11782      69446.563      41.103953      1.0864863    
     61700   299.65341      5067.0908     -798.71303      69351.07       41.085104      1.0879824    
     61800   304.59242      4750.7704      95.469766      69283.549      41.071766      1.0890427    
     61900   300.46217      4831.0235     -226.78112      69238.672      41.062896      1.0897485    
     62000   299.15964      5023.7015      84.769093      69019.237      41.019471      1.0932132    
     62100   299.30918      4763.81       -928.16927      68971.801      41.010071      1.0939651    
     62200   299.01202      5035.392       519.46969      68873.286      40.990536      1.0955299    
     62300   298.61381      4919.8033     -21.219747      68891.592      40.994168      1.0952388    
     62400   303.54184      4833.7019      855.46296      69161.899      41.047713      1.0909582    
     62500   310.24137      4858.8099      676.19969      69412.626      41.097256      1.0870175    
     62600   302.7693       5048.3777      155.07854      69521.477      41.118727      1.0853156    
     62700   301.31541      5338.6656      103.82345      69646.216      41.143305      1.0833717    
     62800   295.90046      5442.6659      105.19133      69738.763      41.161521      1.0819341    
     62900   297.7957       4338.0656      99.295011      69607.085      41.135598      1.0839808    
     63000   302.94532      4996.1139     -781.02658      69422.713      41.099247      1.0868596    
     63100   299.20576      4462.8832     -71.075541      69298.557      41.074731      1.0888068    
     63200   300.31799      4648.8047     -520.44535      69081.618      41.031825      1.092226     
     63300   296.59933      5412.9835      1083.6756      68670.307      40.950229      1.0987681    
     63400   299.69137      5165.9507      1371.7996      68529.695      40.922259      1.1010226    
     63500   302.4027       4996.911       901.2103       68748.931      40.965851      1.0975115    
     63600   297.58477      5120.3949      427.26783      68882.806      40.992425      1.0953785    
     63700   302.24292      4953.5271      758.69876      68780.252      40.972071      1.0970117    
     63800   305.68         5239.3196      1416.2935      68590.357      40.93433       1.1000488    
     63900   303.70812      5174.1653      1966.1611      68502.249      40.916795      1.1014637    
     64000   299.4157       4992.4599      506.42318      68541.049      40.924519      1.1008402    
     64100   298.32458      4977.8549      447.11607      68572.378      40.930753      1.1003373    
     64200   300.61578      4829.7984      205.22661      68632.886      40.942789      1.0993672    
     64300   303.55532      4207.1834     -152.75148      68722.81       40.960662      1.0979287    
     64400   296.11852      4608.5154      236.27855      68797.992      40.975594      1.0967288    
     64500   297.26939      5409.4529      72.259556      69003.129      41.016279      1.0934684    
     64600   295.80915      4783.1381      701.90875      69138.709      41.043125      1.0913241    
     64700   301.8226       5409.1946      1278.3681      69191.76       41.05362       1.0904874    
     64800   303.23144      5073.8461     -120.40176      69350.331      41.084958      1.087994     
     64900   300.32137      4793.1995      1425.7743      69400.026      41.094769      1.0872149    
     65000   295.4591       5145.8401     -1150.8453      69332.12       41.081361      1.0882798    
     65100   297.68975      4842.3831     -104.47738      69009.075      41.017457      1.0933742    
     65200   299.63117      5292.9881      682.77435      68746.147      40.965298      1.0975559    
     65300   300.97045      5088.585       296.63138      68585.187      40.933302      1.1001318    
     65400   303.23275      5511.584       2585.4855      68462.235      40.908827      1.1021075    
     65500   300.18659      5489.8558      88.685052      68648.898      40.945972      1.0991108    
     65600   295.45091      4761.0482      2857.1037      68607.754      40.937791      1.0997699    
     65700   294.64346      4812.2458     -401.13482      68699.368      40.956004      1.0983033    
     65800   299.81966      4725.3427     -1292.4659      68737.697      40.96362       1.0976909    
     65900   301.33142      5292.9591      1386.6822      68496.929      40.915736      1.1015493    
     66000   300.39011      4356.1467      1762.5674      68367.218      40.889893      1.1036392    
     66100   298.94721      4086.9916     -285.73619      68391.844      40.894802      1.1032418    
     66200   298.22902      4803.8057     -116.80277      68402.863      40.896998      1.1030641    
     66300   298.53512      4374.7036      806.19578      68274.258      40.871351      1.1051419    
     66400   297.92638      5100.102       72.732137      68110.132      40.838574      1.107805     
     66500   300.32681      4299.0263      335.54849      68030.255      40.822604      1.1091057    
     66600   298.26222      4916.5937     -650.81508      68206.736      40.857873      1.1062359    
     66700   300.33876      5036.1962      692.50289      68238.254      40.864165      1.105725     
     66800   299.9193       4591.219       236.8413       68219.256      40.860373      1.1060329    
     66900   299.55619      4268.8019     -1149.3974      68207.145      40.857955      1.1062293    
     67000   300.95662      4933.3422      1430.0817      68124.654      40.841477      1.1075688    
     67100   298.25727      4687.3563      412.69077      68139.68       40.844479      1.1073246    
     67200   294.34878      5182.7112      622.46341      68063.152      40.829183      1.1085696    
     67300   294.39408      4197.4163     -83.685165      67796.389      40.775772      1.1129316    
     67400   301.84999      4772.3896      284.23137      67612.899      40.738952      1.1159519    
     67500   300.9177       4711.0229      737.8092       67595.048      40.735366      1.1162466    
     67600   303.25252      4365.3211      384.65378      67677.287      40.75188       1.1148902    
     67700   297.6807       4926.2789     -59.251169      67624.847      40.741351      1.1157547    
     67800   298.37219      4869.3318      80.597351      67758.32       40.768138      1.1135569    
     67900   300.09292      4714.4419      417.9327       67850.751      40.786667      1.1120399    
     68000   300.52416      4462.2031      346.05865      67861.538      40.788829      1.1118631    
     68100   302.50361      5109.0394      800.79693      67711.098      40.758665      1.1143335    
     68200   303.07148      4649.7753     -889.66056      67498.319      40.715926      1.1178462    
     68300   300.5246       5491.3879      507.61281      67184.598      40.652748      1.1230661    
     68400   297.27929      5311.5527      1231.1989      67056.425      40.626879      1.1252127    
     68500   298.56256      4977.5958      107.50179      67082.225      40.632089      1.12478      
     68600   303.78915      4366.3971     -446.80926      67229.039      40.66171       1.1223237    
     68700   302.70352      4372.5276      1308.3465      67254.739      40.66689       1.1218948    
     68800   303.59869      4196.0306     -559.69884      67151.416      40.646054      1.123621     
     68900   295.28784      4973.7862      588.6537       66873.997      40.590004      1.1282822    
     69000   295.43191      5105.2165      222.56563      66786.899      40.572375      1.1297536    
     69100   299.38855      4311.9016      1811.0905      66789.486      40.572898      1.1297099    
     69200   305.35656      4790.4754      90.351259      66829.877      40.581076      1.1290271    
     69300   304.41918      4222.8605     -614.85025      66729.924      40.560834      1.1307182    
     69400   300.32158      4819.1095      104.90067      66628.024      40.540177      1.1324476    
     69500   296.17656      4559.6076      754.7853       66731.325      40.561118      1.1306945    
[...]
   2482100   293.04632      3936.9958     -1853.7935      60476.982      39.252143      1.2476274    
   2482200   303.60226      4513.3165      863.97364      60488.026      39.254532      1.2473997    
   2482300   296.60067      4326.2131     -877.42889      60514.769      39.260316      1.2468484    
   2482400   297.19317      4837.512       101.19462      60407.635      39.237134      1.2490597    
   2482500   305.91265      4593.057      -622.92544      60395.891      39.234591      1.2493026    
   2482600   300.47393      4580.0442     -420.85989      60562.693      39.270677      1.2458617    
   2482700   296.59971      4018.1747      69.605854      60715.056      39.303582      1.2427353    
   2482800   299.98225      3608.4267     -1295.7305      60643.391      39.288112      1.2442039    
   2482900   299.38616      4180.1712      1144.0925      60404.445      39.236443      1.2491257    
   2483000   302.8702       4473.5632      961.14723      60251.504      39.2033        1.2522964    
   2483100   307.77325      4649.4961      132.08566      60256.333      39.204348      1.2521961    
   2483200   303.52324      3998.5472     -490.13318      60430.009      39.241978      1.2485972    
   2483300   296.91622      4015.474      -501.78062      60461.439      39.24878       1.2479482    
   2483400   299.87242      4013.8663     -23.578604      60463.349      39.249193      1.2479087    
   2483500   298.88598      3661.9538     -198.45271      60420.298      39.239876      1.2487979    
   2483600   299.17013      4198.4983      1009.5844      60303.591      39.214594      1.2512148    
   2483700   303.66141      4836.6701     -388.85127      60186.671      39.189234      1.2536454    
   2483800   303.2344       4618.5237      110.59683      60201.619      39.192478      1.2533341    
   2483900   297.47641      4416.8097     -1494.3695      60334.307      39.221251      1.2505778    
   2484000   300.25389      4742.7445     -594.76974      60517.758      39.260963      1.2467868    
   2484100   299.31893      4536.643      -1329.6115      60740.488      39.309069      1.2422149    
   2484200   299.77928      3989.1935     -381.10549      60779.833      39.317555      1.2414108    
   2484300   303.09635      3530.8102     -249.55619      60712.878      39.303112      1.2427799    
   2484400   303.89713      4139.753      -599.40358      60731.794      39.307193      1.2423928    
   2484500   304.02554      3594.8757      328.63781      60705.41       39.301501      1.2429328    
   2484600   295.88944      3880.5437      138.35322      60585.788      39.275669      1.2453868    
   2484700   298.9119       3924.6584     -19.08646       60491.815      39.255352      1.2473215    
   2484800   301.42249      3765.3949     -547.76409      60372.122      39.229443      1.2497945    
   2484900   305.45159      4521.6517      895.76864      60268.15       39.20691       1.2519505    
   2485000   302.2807       4295.1752      693.88499      60245.301      39.201955      1.2524253    
   2485100   300.67341      4146.5552     -716.17856      60353.692      39.225451      1.2501761    
   2485200   300.4798       4461.5321      270.84705      60382.891      39.231776      1.2495716    
   2485300   298.46557      4334.6814     -570.6835       60601.505      39.279064      1.2450638    
   2485400   304.2178       3701.6023      891.82355      60660.562      39.29182       1.2438517    
   2485500   308.4999       4117.2879     -21.285835      60675.531      39.295051      1.2435448    
   2485600   300.64569      3937.9522      395.58253      60564.795      39.271132      1.2458185    
   2485700   298.98533      4383.6239      543.30024      60414.196      39.238554      1.2489241    
   2485800   298.04622      3752.2264     -592.69878      60370.733      39.229143      1.2498232    
   2485900   301.6921       3971.9079     -1183.5072      60403.509      39.236241      1.249145     
   2486000   302.26748      4203.9622      1102.6199      60286.445      39.210877      1.2515706    
   2486100   300.72713      3686.1979      244.77617      60332.915      39.22095       1.2506066    
   2486200   300.80515      3916.8038      161.46789      60399.78       39.235433      1.2492221    
   2486300   297.88477      3715.974      -903.68996      60516.581      39.260708      1.2468111    
   2486400   299.51975      3903.1491     -664.9269       60485.882      39.254068      1.2474439    
   2486500   300.41456      4133.5419     -74.096147      60483.578      39.25357       1.2474914    
   2486600   302.16277      4136.9561     -930.35129      60617.829      39.282591      1.2447285    
   2486700   297.00527      4007.0352     -1256.1913      60730.769      39.306972      1.2424138    
   2486800   296.83852      4171.5786      95.550029      60800.431      39.321996      1.2409903    
   2486900   299.62068      4320.239      -1188.7411      60766.101      39.314594      1.2416914    
   2487000   304.30013      3662.7556     -930.99874      60615.236      39.282031      1.2447818    
   2487100   297.76146      4487.4814     -481.11703      60442.04       39.244582      1.2483487    
   2487200   299.8333       4680.0066      1054.795       60314.542      39.216968      1.2509876    
   2487300   297.08403      4504.3565     -1010.699       60320.689      39.2183        1.2508601    
   2487400   299.15588      4179.0635     -1042.5149      60285.338      39.210637      1.2515936    
   2487500   296.58576      4431.2698      47.582795      60249.621      39.202892      1.2523356    
   2487600   301.28304      4925.74        148.21047      60174.664      39.186628      1.2538955    
   2487700   301.3774       4389.4699     -463.85158      60272.368      39.207825      1.2518629    
   2487800   301.373        4437.4819     -2476.7832      60432.438      39.242503      1.2485471    
   2487900   300.16596      5109.9837     -176.8667       60366.617      39.228251      1.2499084    
   2488000   299.61069      4433.16        501.3343       60458.773      39.248203      1.2480032    
   2488100   297.67356      3944.8076     -328.90909      60536.89       39.265099      1.2463928    
   2488200   297.83318      4751.9252      530.31905      60521.242      39.261716      1.246715     
   2488300   304.069        4714.7227      1718.777       60587.014      39.275934      1.2453616    
   2488400   302.82449      4373.647      -267.31221      60638.345      39.287022      1.2443074    
   2488500   301.73207      4110.6616     -1491.5167      60567.853      39.271793      1.2457556    
   2488600   296.89186      4165.7035     -251.25113      60243.698      39.201607      1.2524587    
   2488700   301.571        4242.0696      1833.0248      59978.093      39.143911      1.258005     
   2488800   297.06517      4147.1619      579.35905      59959.073      39.139773      1.2584041    
   2488900   302.25188      4287.2694     -369.44423      60167.306      39.18503       1.2540489    
   2489000   299.33544      4148.174      -170.61299      60428.288      39.241605      1.2486328    
   2489100   305.79179      3784.2714     -922.3105       60551.753      39.268313      1.2460868    
   2489200   297.79584      4002.0475      459.24624      60503.058      39.257783      1.2470897    
   2489300   296.79765      4441.7035     -556.61099      60527.601      39.263091      1.246584     
   2489400   297.24946      4154.8258      1091.2634      60481.534      39.253128      1.2475335    
   2489500   298.32633      4605.6315      828.22798      60466.941      39.24997       1.2478346    
   2489600   304.06953      4133.4379      653.06256      60440.099      39.244162      1.2483888    
   2489700   308.85508      4114.7578      434.83438      60440.487      39.244246      1.2483808    
   2489800   302.12109      4448.7888      1099.8463      60429.556      39.24188       1.2486066    
   2489900   298.76601      4234.6039      894.33406      60430.25       39.24203       1.2485923    
   2490000   296.00275      3726.5728     -622.74189      60503.673      39.257917      1.2470771    
   2490100   299.34866      4294.4461     -1267.1747      60560.258      39.270151      1.2459118    
   2490200   307.41124      4677.2653     -517.3621       60321.801      39.218541      1.250837     
   2490300   301.19295      4770.0346     -295.82215      60104.091      39.171302      1.2553678    
   2490400   303.14475      4094.4886      616.4577       60060.843      39.161905      1.2562718    
   2490500   294.1362       3616.7523     -229.06516      60133.559      39.177703      1.2547527    
   2490600   297.59183      3606.1023     -1395.6247      60221.107      39.196707      1.2529285    
   2490700   302.27059      4099.8776     -176.38118      60278.277      39.209106      1.2517402    
   2490800   302.13277      3726.7934     -99.547917      60340.144      39.222516      1.2504568    
   2490900   298.42122      4132.5969     -136.15804      60370.927      39.229185      1.2498192    
   2491000   298.54844      3927.6104      395.61563      60434.239      39.242893      1.2485099    
   2491100   295.80968      3822.5814      280.17001      60370.975      39.229195      1.2498182    
   2491200   298.82835      3843.5139      987.41456      60197.624      39.191611      1.2534173    
   2491300   301.54767      4049.5096      250.74113      60166.691      39.184897      1.2540617    
   2491400   302.45269      3976.7628     -580.45475      60173.72       39.186423      1.2539152    
   2491500   300.31951      4044.2508      772.59056      60211.759      39.194678      1.253123     
   2491600   298.07222      3153.1429     -42.948224      60362.323      39.227321      1.2499973    
   2491700   297.29058      3387.0668     -112.69527      60361.164      39.22707       1.2500213    
   2491800   298.15775      4043.7124     -414.93109      60225.731      39.19771       1.2528323    
   2491900   297.65944      4426.1593      173.40591      60090.197      39.168284      1.2556581    
   2492000   306.95283      3374.0841      499.84795      60091.98       39.168671      1.2556208    
   2492100   301.62096      4270.034       119.32016      60167.754      39.185128      1.2540395    
   2492200   298.12797      4536.2559      872.75319      60213.375      39.195029      1.2530894    
   2492300   297.39011      4280.6855      683.39071      60290.24       39.2117        1.2514918    
   2492400   300.5835       4536.7557     -139.67189      60293.306      39.212365      1.2514282    
   2492500   303.90926      3848.5831      539.27908      60199.956      39.192117      1.2533687    
   2492600   302.2381       3827.041      -438.09209      60228.208      39.198247      1.2527808    
   2492700   296.7798       3710.3225      184.74567      60331.827      39.220714      1.2506292    
   2492800   299.49887      4354.1402     -1356.8397      60503.946      39.257976      1.2470714    
   2492900   299.71852      3213.6713     -1166.1492      60576.667      39.273698      1.2455743    
   2493000   299.21661      3388.8103     -921.15612      60457.507      39.247929      1.2480293    
   2493100   303.83652      3870.4522     -929.67692      60209.473      39.194182      1.2531706    
   2493200   303.61955      4393.2913      1182.2626      60082.238      39.166554      1.2558244    
   2493300   301.26137      3567.0855      693.76049      60213.752      39.195111      1.2530816    
   2493400   304.88445      3540.0229     -148.99398      60393.96       39.234173      1.2493425    
   2493500   298.52559      4208.4994     -42.662164      60390.281      39.233376      1.2494186    
   2493600   300.87822      3560.6048      1756.0407      60209.715      39.194235      1.2531656    
   2493700   295.57725      4101.895       1327.1966      60111.605      39.172935      1.2552109    
   2493800   296.12768      3625.61       -1674.0514      60130.908      39.177127      1.254808     
   2493900   301.33169      3397.1381     -486.65961      60278.209      39.209091      1.2517416    
   2494000   304.43651      3636.9994      169.08826      60413.104      39.238318      1.2489466    
   2494100   300.13578      4114.6707     -674.20422      60495.457      39.256139      1.2472464    
   2494200   298.29722      4113.1605     -687.76379      60517.482      39.260903      1.2467925    
   2494300   294.84028      4070.9685     -1409.2635      60583.616      39.275199      1.2454315    
   2494400   296.7167       3624.9316      757.8088       60407.311      39.237064      1.2490664    
   2494500   301.39205      3394.2534      523.82447      60215.72       39.195538      1.2530406    
   2494600   302.78213      3875.8978     -223.49622      60164.982      39.184526      1.2540973    
   2494700   296.54587      4791.5566      442.7159       60164.282      39.184374      1.2541119    
   2494800   297.15884      3956.5721     -1669.9525      60301.132      39.214061      1.2512658    
   2494900   298.49474      4317.9633      805.58785      60306.056      39.215129      1.2511636    
   2495000   300.79074      4409.5981     -204.33901      60436.052      39.243286      1.2484724    
   2495100   303.41565      4202.383       941.01834      60575.971      39.273547      1.2455887    
   2495200   302.90317      4415.0832      1199.5678      60729.667      39.306735      1.2424363    
   2495300   297.03018      3559.3724     -81.203096      60860.965      39.335041      1.2397559    
   2495400   297.0179       3756.8108     -1808.7018      60779.943      39.317579      1.2414086    
   2495500   303.19437      4175.9738      146.81157      60577.6        39.273899      1.2455552    
   2495600   304.45211      4101.1177      1066.2381      60356.606      39.226083      1.2501157    
   2495700   299.67145      4413.2339      302.83609      60233.274      39.199346      1.2526754    
   2495800   300.26965      4509.5527      297.46057      60171.482      39.185937      1.2539618    
   2495900   298.51469      4170.0791     -1075.2371      60263.516      39.205905      1.2520468    
   2496000   298.36367      3707.4216      78.747966      60286.208      39.210826      1.2515755    
   2496100   299.55907      4073.9507     -355.33782      60332.739      39.220911      1.2506103    
   2496200   304.06979      3783.5261     -1302.0771      60368.776      39.228719      1.2498637    
   2496300   299.62851      4155.2371      6.4941342      60321.038      39.218376      1.2508528    
   2496400   304.41073      4520.3305      1357.0313      60317.03       39.217507      1.250936     
   2496500   302.26943      3482.4092     -1106.5953      60461.874      39.248874      1.2479392    
   2496600   299.64456      3757.0963     -229.32516      60568.411      39.271913      1.2457441    
   2496700   303.3642       3955.4365     -99.792194      60514.749      39.260312      1.2468488    
   2496800   298.1951       4389.3587     -1194.6045      60376.151      39.230316      1.249711     
   2496900   295.74279      4657.4727      942.23856      60333.425      39.22106       1.250596     
   2497000   297.23888      4123.3768     -926.73402      60429.909      39.241956      1.2485993    
   2497100   296.87762      4407.1347      887.06676      60279.34       39.209337      1.2517181    
   2497200   305.76382      4240.1895     -269.60138      60304.865      39.21487       1.2511883    
   2497300   301.4684       3733.0005      297.41856      60365.109      39.227924      1.2499396    
   2497400   298.22112      3794.2604     -405.12321      60330.384      39.220401      1.2506591    
   2497500   295.96579      3280.7998     -618.76849      60239.997      39.200805      1.2525356    
   2497600   301.34733      4353.9843      659.33798      60098.038      39.169987      1.2554943    
   2497700   302.49469      4656.5499      477.83972      60114.814      39.173632      1.2551439    
   2497800   302.12606      3446.8742      372.2229       60248.301      39.202606      1.252363     
   2497900   299.33841      3300.5634      275.78376      60325.984      39.219448      1.2507503    
   2498000   299.44745      3784.3778     -600.2163       60277.843      39.209012      1.2517492    
   2498100   302.27231      3451.592      -687.76049      60247.292      39.202387      1.252384     
   2498200   300.79023      4149.9318      1406.2202      60202.311      39.192628      1.2533197    
   2498300   305.73209      3473.0124     -57.749246      60309.439      39.215862      1.2510934    
   2498400   305.37282      4254.8013      566.77583      60325.742      39.219395      1.2507553    
   2498500   302.02756      3743.8285     -1061.8401      60369.791      39.228939      1.2498427    
   2498600   299.4002       3730.1034      18.75013       60283.561      39.210252      1.2516305    
   2498700   296.51131      4594.4628      1003.1302      60213.456      39.195047      1.2530877    
   2498800   301.11691      4487.8388      40.224863      60357.01       39.22617       1.2501074    
   2498900   300.87422      4056.2886     -152.04619      60492.088      39.255411      1.2473159    
   2499000   299.00618      3412.621       243.01847      60416.212      39.238991      1.2488824    
   2499100   301.22074      3859.4796     -517.6687       60266.46       39.206544      1.2519856    
   2499200   302.85278      3791.948      -1443.6447      60194.891      39.191018      1.2534742    
   2499300   302.83948      4210.7397      762.04318      60061.377      39.162021      1.2562606    
   2499400   294.16938      3664.3867      905.2924       60098.825      39.170158      1.2554778    
   2499500   302.40527      4326.8124      62.474223      60202.401      39.192648      1.2533178    
   2499600   299.68097      4116.2385      1127.2476      60225.077      39.197568      1.2528459    
   2499700   300.51572      3550.2193      860.01612      60323.579      39.218926      1.2508002    
   2499800   305.18374      3596.5688      255.66397      60350.638      39.22479       1.2502393    
   2499900   305.6197       3676.3682      657.15647      60257.789      39.204663      1.2521658    
   2500000   304.60653      3561.3356      1393.6898      60104.624      39.171418      1.2553567    
   2500056   301.48543      3392.6357      426.89123      60114.869      39.173644      1.2551428    
Loop time of 10021.8 on 8 procs for 600000 steps with 6684 atoms

Performance: 5.173 ns/day, 4.640 hours/ns, 59.869 timesteps/s
79.6% CPU use with 1 MPI tasks x 8 OpenMP threads

MPI task timing breakdown:
Section |  min time  |  avg time  |  max time  |%varavg| %total
---------------------------------------------------------------
Pair    | 6498.2     | 6498.2     | 6498.2     |   0.0 | 64.84
Bond    | 1218.9     | 1218.9     | 1218.9     |   0.0 | 12.16
Neigh   | 921.85     | 921.85     | 921.85     |   0.0 |  9.20
Comm    | 153.87     | 153.87     | 153.87     |   0.0 |  1.54
Output  | 2.4148     | 2.4148     | 2.4148     |   0.0 |  0.02
Modify  | 1207.4     | 1207.4     | 1207.4     |   0.0 | 12.05
Other   |            | 19.22      |            |       |  0.19

Nlocal:           6684 ave        6684 max        6684 min
Histogram: 1 0 0 0 0 0 0 0 0 0
Nghost:          21216 ave       21216 max       21216 min
Histogram: 1 0 0 0 0 0 0 0 0 0
Neighs:    2.65386e+06 ave 2.65386e+06 max 2.65386e+06 min
Histogram: 1 0 0 0 0 0 0 0 0 0

Total # of neighbors = 2653863
Ave neighs/atom = 397.04713
Ave special neighs/atom = 11.251945
Neighbor list builds = 29741
Dangerous builds = 0
unfix             5


#final
write_data		PVA_GA_NP_H2O_EQUILIBRATED_WITH_CHARGE.data
System init for write_data ...
Generated 153 of 153 mixed pair_coeff terms from geometric mixing rule
Last active /omp style is dihedral_style harmonic/omp

#parameter
neighbor		2.0 bin
Total wall time: 11:41:12
