LAMMPS (15 Sep 2022)
OMP_NUM_THREADS environment is not set. Defaulting to 1 thread. (src/comm.cpp:98)
  using 1 OpenMP thread(s) per MPI task
Loaded 1 plugins from C:\Users\HP\AppData\Local\LAMMPS 64-bit 15Sep2022\plugins
package omp 0
using multi-threaded neighbor list subroutines
package omp 8
set 8 OpenMP thread(s) per MPI task
using multi-threaded neighbor list subroutines
# Initialization
units			real
dimension		3
processors		* * *
boundary		p p p
atom_style		full
pair_style		lj/cut/coul/cut 10.0
bond_style		harmonic
angle_style 	harmonic
dihedral_style  harmonic
read_data		PVA_GA_NC_DIHEDRALS_INPUT_WITH_CHARGE.data
Reading data file ...
  orthogonal box = (0.1945 -0.043001 0.018501) to (90.1945 89.956999 90.018501)
  1 by 1 by 1 MPI processor grid
  reading atoms ...
  3596 atoms
  reading velocities ...
  3596 velocities
  scanning bonds ...
  4 = max bonds/atom
  scanning angles ...
  6 = max angles/atom
  scanning dihedrals ...
  12 = max dihedrals/atom
  reading bonds ...
  3632 bonds
  reading angles ...
  6624 angles
  reading dihedrals ...
  10296 dihedrals
Finding 1-2 1-3 1-4 neighbors ...
  special bond factors lj:    0        0        0       
  special bond factors coul:  0        0        0       
     4 = max # of 1-2 neighbors
     7 = max # of 1-3 neighbors
    16 = max # of 1-4 neighbors
    20 = max # of special neighbors
  special bonds CPU = 0.003 seconds
  read_data CPU = 0.103 seconds

#output

thermo			100
thermo_style	custom step temp pe press vol lx density
dump			1 all custom 100 before_cross_linking.lammpstrj id type x y z
timestep 1


#intial minimization
minimize		1.0e-5 1.0e-5 10000 10000
Switching to 'neigh_modify every 1 delay 0 check yes' setting during minimization
Generated 136 of 136 mixed pair_coeff terms from geometric mixing rule
Last active /omp style is dihedral_style harmonic/omp
Neighbor list info ...
  update: every = 1 steps, delay = 0 steps, check = yes
  max neighbors/atom: 2000, page size: 100000
  master list distance cutoff = 12
  ghost atom cutoff = 12
  binsize = 6, bins = 15 15 15
  1 neighbor lists, perpetual/occasional/extra = 1 0 0
  (1) pair lj/cut/coul/cut/omp, perpetual
      attributes: half, newton on, omp
      pair build: half/bin/newton/omp
      stencil: half/bin/3d
      bin: standard
Per MPI rank memory allocation (min/avg/max) = 22.23 | 22.23 | 22.23 Mbytes
   Step          Temp          PotEng         Press          Volume           Lx          Density    
         0   0              30406.112     -2097.6145      729000         90             0.06203364   
        26   0              2741.2192     -443.36174      729000         90             0.06203364   
Loop time of 0.253784 on 8 procs for 26 steps with 3596 atoms

30.8% CPU use with 1 MPI tasks x 8 OpenMP threads

Minimization stats:
  Stopping criterion = linesearch alpha is zero
  Energy initial, next-to-last, final = 
      30406.1121191805   2741.21922897896   2741.21922897894
  Force two-norm initial, final = 12330.742 231.61359
  Force max component initial, final = 2061.9042 28.560497
  Final line search alpha, max atom move = 2.0380479e-13 5.8207661e-12
  Iterations, force evaluations = 26 105

MPI task timing breakdown:
Section |  min time  |  avg time  |  max time  |%varavg| %total
---------------------------------------------------------------
Pair    | 0.14893    | 0.14893    | 0.14893    |   0.0 | 58.68
Bond    | 0.077116   | 0.077116   | 0.077116   |   0.0 | 30.39
Neigh   | 0.004554   | 0.004554   | 0.004554   |   0.0 |  1.79
Comm    | 0.002171   | 0.002171   | 0.002171   |   0.0 |  0.86
Output  | 0          | 0          | 0          |   0.0 |  0.00
Modify  | 0.008257   | 0.008257   | 0.008257   |   0.0 |  3.25
Other   |            | 0.01276    |            |       |  5.03

Nlocal:           3596 ave        3596 max        3596 min
Histogram: 1 0 0 0 0 0 0 0 0 0
Nghost:           2390 ave        2390 max        2390 min
Histogram: 1 0 0 0 0 0 0 0 0 0
Neighs:         197052 ave      197052 max      197052 min
Histogram: 1 0 0 0 0 0 0 0 0 0

Total # of neighbors = 197052
Ave neighs/atom = 54.797553
Ave special neighs/atom = 11.430478
Neighbor list builds = 2
Dangerous builds = 0

# nvt for 200 ps
fix			1 all nvt temp 300 300 100
run			200000
Generated 136 of 136 mixed pair_coeff terms from geometric mixing rule
Last active /omp style is dihedral_style harmonic/omp
Per MPI rank memory allocation (min/avg/max) = 21.11 | 21.11 | 21.11 Mbytes
   Step          Temp          PotEng         Press          Volume           Lx          Density    
        26   0              2741.2192     -443.36174      729000         90             0.06203364   
       100   161.72499      1417.2712     -228.87989      729000         90             0.06203364   
       200   244.51642      946.81996     -10.409367      729000         90             0.06203364   
       300   314.07553     -563.25385     -109.17783      729000         90             0.06203364   
       400   355.87981     -1475.989      -336.07797      729000         90             0.06203364   
       500   349.74049     -2530.8192     -43.860063      729000         90             0.06203364   
       600   319.81853     -3266.6158      322.47169      729000         90             0.06203364   
       700   314.39967     -2887.8685      175.10733      729000         90             0.06203364   
       800   307.40143     -3063.8088      76.924391      729000         90             0.06203364   
       900   292.2176      -2614.0996      40.236347      729000         90             0.06203364   
      1000   299.32128     -3051.4356      109.06438      729000         90             0.06203364   
      1100   310.33387     -3276.8659      10.049439      729000         90             0.06203364   
      1200   310.10289     -3486.6184      28.071969      729000         90             0.06203364   
      1300   308.25255     -3471.3351     -1.607357       729000         90             0.06203364   
      1400   291.46087     -3759.3791     -58.930194      729000         90             0.06203364   
      1500   291.21512     -3372.5997     -64.374365      729000         90             0.06203364   
      1600   301.86416     -3488.9386     -29.388814      729000         90             0.06203364   
      1700   299.25491     -3396.9831      22.956257      729000         90             0.06203364   
      1800   317.31111     -3061.7634      65.844384      729000         90             0.06203364   
      1900   309.96546     -3282.8172     -10.718634      729000         90             0.06203364   
      2000   307.92165     -4174.18        53.845794      729000         90             0.06203364   
      2100   289.91739     -3763.8556      33.691219      729000         90             0.06203364   
      2200   293.54361     -3757.7157      0.56570877     729000         90             0.06203364   
      2300   302.86609     -3697.3618      45.439495      729000         90             0.06203364   
      2400   295.09505     -3167.1975     -4.2743796      729000         90             0.06203364   
      2500   299.3079      -3338.5868     -108.62673      729000         90             0.06203364   
      2600   309.88868     -3783.0883     -55.543271      729000         90             0.06203364   
      2700   293.86914     -3665.1334     -30.434046      729000         90             0.06203364   
      2800   288.063       -3713.6634      71.091278      729000         90             0.06203364   
      2900   299.81166     -3980.1786     -135.30866      729000         90             0.06203364   
      3000   302.18221     -3811.5581     -74.156454      729000         90             0.06203364   
      3100   317.94252     -3854.8445      37.207896      729000         90             0.06203364   
      3200   303.29941     -3928.5743      20.129869      729000         90             0.06203364   
      3300   301.67736     -3855.7665     -57.70809       729000         90             0.06203364   
      3400   298.59255     -3784.717      -8.774767       729000         90             0.06203364   
      3500   303.84084     -3988.3613     -28.787645      729000         90             0.06203364   
      3600   298.14405     -3574.6367      39.149471      729000         90             0.06203364   
      3700   301.09922     -4112.4193      107.56942      729000         90             0.06203364   
      3800   308.40035     -3612.884      -85.241738      729000         90             0.06203364   
      3900   296.7929      -3475.1749      2.0000268      729000         90             0.06203364   
      4000   305.11812     -3617.3561     -8.6863177      729000         90             0.06203364   
      4100   300.39028     -3466.8755     -9.8760515      729000         90             0.06203364   
      4200   299.78965     -3867.1209      12.163918      729000         90             0.06203364   
      4300   293.82508     -3967.4976     -68.149498      729000         90             0.06203364   
      4400   297.08372     -3993.2129      27.376989      729000         90             0.06203364   
      4500   306.57682     -4206.0691      32.623962      729000         90             0.06203364   
      4600   307.79427     -4142.9458      50.634682      729000         90             0.06203364   
      4700   296.17708     -4062.625      -18.157158      729000         90             0.06203364   
      4800   293.57208     -4012.9212     -27.908133      729000         90             0.06203364   
      4900   302.2707      -4122.4998      19.252651      729000         90             0.06203364   
      5000   304.35608     -3989.9087      8.6798955      729000         90             0.06203364   
      5100   303.75121     -3864.4352     -34.878936      729000         90             0.06203364   
      5200   296.45811     -3499.1132     -0.46969578     729000         90             0.06203364   
      5300   303.84162     -3629.5115     -45.019758      729000         90             0.06203364   
      5400   303.59482     -3785.947      -46.27985       729000         90             0.06203364   
      5500   304.94051     -4175.5964      18.347299      729000         90             0.06203364   
      5600   299.12779     -3761.1899      100.80564      729000         90             0.06203364   
      5700   295.39925     -3587.4554      78.490618      729000         90             0.06203364   
      5800   292.80491     -3824.563      -97.456647      729000         90             0.06203364   
      5900   298.86321     -3927.3139      5.0011042      729000         90             0.06203364   
      6000   308.9908      -3962.1186      22.917103      729000         90             0.06203364   
      6100   296.67993     -4181.3447     -77.594565      729000         90             0.06203364   
      6200   293.17576     -4292.1012     -162.96652      729000         90             0.06203364   
      6300   299.31743     -3907.604      -26.745684      729000         90             0.06203364   
      6400   305.32849     -4281.9026     -24.47948       729000         90             0.06203364   
      6500   297.90903     -4461.5761     -73.729907      729000         90             0.06203364   
      6600   292.40209     -4053.9705     -12.389796      729000         90             0.06203364   
      6700   296.38698     -3847.4733      63.664514      729000         90             0.06203364   
      6800   296.81813     -4260.8595     -25.01053       729000         90             0.06203364   
      6900   304.31094     -3839.1454     -14.14873       729000         90             0.06203364   
      7000   301.87752     -3774.5808      40.494502      729000         90             0.06203364   
      7100   305.99166     -4119.8851      29.747836      729000         90             0.06203364   
      7200   297.35204     -4277.9578      59.05996       729000         90             0.06203364   
      7300   303.87719     -3892.7136      73.369157      729000         90             0.06203364   
      7400   299.52802     -4028.373       63.704599      729000         90             0.06203364   
      7500   295.35298     -3851.7646     -28.486656      729000         90             0.06203364   
      7600   298.41842     -3929.7997     -37.382079      729000         90             0.06203364   
      7700   298.36189     -3700.0037     -13.37888       729000         90             0.06203364   
      7800   294.85651     -3973.3645     -83.897483      729000         90             0.06203364   
      7900   301.56919     -4346.0557     -27.920538      729000         90             0.06203364   
      8000   302.22172     -4330.7257     -83.996565      729000         90             0.06203364   
      8100   291.68423     -4311.1125      63.148611      729000         90             0.06203364   
      8200   303.63371     -4537.4518     -56.489404      729000         90             0.06203364   
      8300   304.71342     -4357.1739      18.712286      729000         90             0.06203364   
      8400   307.86597     -4084.0791      16.558225      729000         90             0.06203364   
      8500   296.31128     -4640.6784     -51.18173       729000         90             0.06203364   
      8600   296.77685     -4383.2636     -87.442957      729000         90             0.06203364   
      8700   288.63133     -4164.586       45.162291      729000         90             0.06203364   
      8800   288.86962     -4368.2157      37.187449      729000         90             0.06203364   
      8900   299.28942     -4633.3096     -52.456031      729000         90             0.06203364   
      9000   304.53457     -4685.6768     -115.17221      729000         90             0.06203364   
      9100   300.1726      -4656.8196      55.715515      729000         90             0.06203364   
      9200   290.91649     -4477.8047      91.900171      729000         90             0.06203364   
      9300   299.657       -4650.8336     -34.286714      729000         90             0.06203364   
      9400   300.57831     -4066.0231     -26.991925      729000         90             0.06203364   
      9500   294.29853     -4608.3001     -27.677994      729000         90             0.06203364   
      9600   298.15484     -5142.1235      44.035482      729000         90             0.06203364   
      9700   293.68159     -4780.7982     -64.843282      729000         90             0.06203364   
      9800   304.15232     -4710.6958      37.113158      729000         90             0.06203364   
      9900   305.87516     -4791.8913      55.853849      729000         90             0.06203364   
     10000   312.07634     -4461.4334      63.18878       729000         90             0.06203364   
     10100   301.53268     -4868.7189     -19.196442      729000         90             0.06203364   
     10200   299.12746     -4709.5507      42.708261      729000         90             0.06203364   
     10300   292.2524      -4695.054       11.273631      729000         90             0.06203364   
     10400   304.15706     -4781.7849     -85.367045      729000         90             0.06203364   
     10500   314.53227     -4935.7668      6.7317424      729000         90             0.06203364   
     10600   304.06585     -4646.9462      91.907152      729000         90             0.06203364   
     10700   306.05377     -4585.4727      47.561429      729000         90             0.06203364   
     10800   298.98447     -4691.1467     -51.41324       729000         90             0.06203364   
     10900   296.66133     -4469.1375     -13.350569      729000         90             0.06203364   
     11000   298.5066      -4734.8649     -30.44073       729000         90             0.06203364   
     11100   296.89228     -4695.7078     -88.526177      729000         90             0.06203364   
     11200   299.85816     -4720.0669      89.299273      729000         90             0.06203364   
     11300   301.71382     -4638.9164      36.140713      729000         90             0.06203364   
     11400   298.9367      -4710.9092     -18.95561       729000         90             0.06203364   
     11500   295.34677     -4915.8999      6.1344495      729000         90             0.06203364   
     11600   296.33386     -4643.7079     -58.84569       729000         90             0.06203364   
     11700   302.09728     -5124.5412      16.974541      729000         90             0.06203364   
     11800   311.12219     -5130.8976     -73.707124      729000         90             0.06203364   
     11900   299.88738     -4864.9463      74.83399       729000         90             0.06203364   
     12000   303.13566     -4469.8261     -58.164661      729000         90             0.06203364   
     12100   302.17017     -4746.8187     -25.120104      729000         90             0.06203364   
     12200   301.03302     -5252.447       19.749965      729000         90             0.06203364   
     12300   300.16132     -5286.6978     -35.713771      729000         90             0.06203364   
     12400   300.84168     -5081.9882     -79.149829      729000         90             0.06203364   
     12500   312.9168      -4730.3967     -41.287051      729000         90             0.06203364   
     12600   306.04055     -5100.5218     -49.918088      729000         90             0.06203364   
     12700   303.9155      -5300.0794     -53.966873      729000         90             0.06203364   
     12800   296.47706     -4874.0995      17.250947      729000         90             0.06203364   
     12900   297.45425     -4964.0804      87.32178       729000         90             0.06203364   
     13000   303.93388     -5046.5985     -161.78862      729000         90             0.06203364   
     13100   300.32315     -4506.3157      3.5655048      729000         90             0.06203364   
     13200   301.2079      -4831.706       22.055358      729000         90             0.06203364   
     13300   299.08438     -4713.1633     -58.098578      729000         90             0.06203364   
     13400   299.6309      -4780.389      -51.710155      729000         90             0.06203364   
     13500   302.12166     -5263.3394     -1.6389509      729000         90             0.06203364   
     13600   299.58969     -4616.2816      3.560618       729000         90             0.06203364   
     13700   294.87817     -4416.6122      36.349187      729000         90             0.06203364   
     13800   301.87544     -5018.4483     -107.96521      729000         90             0.06203364   
     13900   298.71948     -4726.5567      47.089703      729000         90             0.06203364   
     14000   312.42655     -5289.5365     -140.26981      729000         90             0.06203364   
     14100   301.7116      -4830.3346      61.075348      729000         90             0.06203364   
     14200   299.61855     -5107.4066     -36.712017      729000         90             0.06203364   
     14300   301.17557     -5203.6233     -84.563787      729000         90             0.06203364   
     14400   300.81015     -4978.5612      17.5867        729000         90             0.06203364   
     14500   299.44429     -4987.9213     -79.131201      729000         90             0.06203364   
     14600   293.84108     -5071.3803     -114.14081      729000         90             0.06203364   
     14700   301.58371     -5365.8066      21.004623      729000         90             0.06203364   
     14800   301.21797     -5186.3534     -107.68609      729000         90             0.06203364   
     14900   294.75763     -4942.7661     -106.89519      729000         90             0.06203364   
     15000   303.57983     -5307.0994      52.749606      729000         90             0.06203364   
     15100   291.20591     -5318.4006      46.279635      729000         90             0.06203364   
     15200   293.89661     -4845.7984     -63.751144      729000         90             0.06203364   
     15300   300.54685     -5400.9196     -67.459529      729000         90             0.06203364   
     15400   306.39483     -5385.2018      39.587093      729000         90             0.06203364   
     15500   297.14093     -5378.7858      102.86206      729000         90             0.06203364   
     15600   290.91169     -5331.1474      3.3549622      729000         90             0.06203364   
     15700   299.20909     -4915.4118      90.761693      729000         90             0.06203364   
     15800   297.98585     -5654.153       6.3751441      729000         90             0.06203364   
     15900   306.74088     -5551.9136     -31.323832      729000         90             0.06203364   
     16000   298.51995     -5185.684       85.652377      729000         90             0.06203364   
     16100   300.92836     -4607.1696      89.342602      729000         90             0.06203364   
     16200   306.14814     -5278.2948     -24.271316      729000         90             0.06203364   
     16300   304.96515     -5182.6689      40.670152      729000         90             0.06203364   
     16400   299.13161     -5313.5903      74.963835      729000         90             0.06203364   
     16500   301.62664     -5338.1374      128.57275      729000         90             0.06203364   
     16600   298.83386     -4962.1551      78.505122      729000         90             0.06203364   
     16700   299.95003     -5372.4238      16.339473      729000         90             0.06203364   
     16800   300.33143     -4765.1713      7.1789051      729000         90             0.06203364   
     16900   306.56723     -5392.894       53.965786      729000         90             0.06203364   
     17000   301.08302     -5193.3939     -47.040724      729000         90             0.06203364   
     17100   287.21531     -4922.7171      19.740623      729000         90             0.06203364   
     17200   296.03098     -5102.9483      16.850263      729000         90             0.06203364   
     17300   308.04918     -5186.7543     -26.544893      729000         90             0.06203364   
     17400   297.91724     -5154.871      -97.822117      729000         90             0.06203364   
     17500   301.32956     -5056.472       12.574795      729000         90             0.06203364   
     17600   294.71582     -5061.9583      16.13526       729000         90             0.06203364   
     17700   297.60832     -5347.0317      49.683188      729000         90             0.06203364   
     17800   303.72612     -4960.6637      33.687308      729000         90             0.06203364   
     17900   300.74367     -5204.5369     -36.169003      729000         90             0.06203364   
     18000   300.27504     -4908.9518     -62.605284      729000         90             0.06203364   
     18100   295.20933     -5047.1126     -25.817869      729000         90             0.06203364   
     18200   293.38165     -5233.0008      80.772074      729000         90             0.06203364   
     18300   305.48551     -5557.4195     -93.807576      729000         90             0.06203364   
     18400   308.38175     -5357.422      -45.810703      729000         90             0.06203364   
     18500   298.59984     -5409.1621     -21.042212      729000         90             0.06203364   
     18600   296.01079     -4732.5505      68.907441      729000         90             0.06203364   
     18700   301.09257     -5293.1267     -19.427326      729000         90             0.06203364   
     18800   295.94958     -5392.6726      89.661839      729000         90             0.06203364   
     18900   298.87058     -5794.7978     -162.85674      729000         90             0.06203364   
     19000   298.53152     -5530.9224     -3.0859661      729000         90             0.06203364   
     19100   287.30759     -5434.3908     -8.7628413      729000         90             0.06203364   
     19200   295.91718     -5591.1866     -33.651576      729000         90             0.06203364   
     19300   298.64599     -5588.1934     -6.5757492      729000         90             0.06203364   
     19400   298.15986     -5412.528      -51.36171       729000         90             0.06203364   
     19500   305.45793     -5424.9396      88.749789      729000         90             0.06203364   
     19600   299.76735     -5455.0459     -37.72895       729000         90             0.06203364   
     19700   302.19753     -5686.6251      45.03246       729000         90             0.06203364   
     19800   295.02822     -5651.9703     -46.289046      729000         90             0.06203364   
     19900   308.25499     -5340.5813     -27.704041      729000         90             0.06203364   
     20000   300.82537     -5725.2242     -47.671677      729000         90             0.06203364   
     20100   297.68777     -5768.6066      92.600236      729000         90             0.06203364   
     20200   295.07877     -5730.0913     -63.83392       729000         90             0.06203364   
     20300   301.51665     -5779.642       32.535949      729000         90             0.06203364   
     20400   297.82927     -5382.2361      69.156924      729000         90             0.06203364   
     20500   293.8747      -5809.9126     -6.1198761      729000         90             0.06203364   
     20600   291.01441     -5916.9765      16.950644      729000         90             0.06203364   
     20700   298.45556     -5989.2254      14.151378      729000         90             0.06203364   
     20800   305.57424     -5530.5593      52.742574      729000         90             0.06203364   
     20900   303.14663     -5388.4264     -36.195092      729000         90             0.06203364   
     21000   301.08054     -5677.1396      29.42633       729000         90             0.06203364   
     21100   298.35967     -6231.7465     -15.881393      729000         90             0.06203364   
     21200   300.41498     -5914.7844     -84.668321      729000         90             0.06203364   
     21300   297.14968     -6040.0399      118.44263      729000         90             0.06203364   
     21400   307.0275      -6332.4766     -49.534328      729000         90             0.06203364   
     21500   307.05017     -6284.0881      35.844497      729000         90             0.06203364   
     21600   303.57908     -5927.3525      15.66463       729000         90             0.06203364   
     21700   311.91583     -5641.098      -0.93134753     729000         90             0.06203364   
     21800   303.43357     -5669.4341     -106.5916       729000         90             0.06203364   
     21900   307.21743     -6001.9941     -38.426247      729000         90             0.06203364   
     22000   301.73838     -5731.225      -27.778418      729000         90             0.06203364   
     22100   299.07767     -5662.9657     -117.34884      729000         90             0.06203364   
     22200   303.04496     -5612.7636      61.316887      729000         90             0.06203364   
     22300   303.91054     -5476.4115     -28.438291      729000         90             0.06203364   
     22400   301.26987     -5766.4528      20.467729      729000         90             0.06203364   
     22500   299.86967     -5178.0823      45.291711      729000         90             0.06203364   
     22600   299.26342     -5535.076       15.518377      729000         90             0.06203364   
     22700   292.05227     -5928.7203      44.566913      729000         90             0.06203364   
     22800   296.00539     -5674.7246     -7.0756252      729000         90             0.06203364   
     22900   290.74599     -5423.9217     -98.210681      729000         90             0.06203364   
     23000   305.46801     -5549.6129      27.137118      729000         90             0.06203364   
     23100   300.84442     -5298.4727      17.441192      729000         90             0.06203364   
     23200   300.35364     -5315.9675      19.61613       729000         90             0.06203364   
     23300   302.59441     -5582.2085     -38.524342      729000         90             0.06203364   
     23400   295.40555     -5198.9487     -11.723586      729000         90             0.06203364   
     23500   301.32283     -5836.1996      122.57338      729000         90             0.06203364   
     23600   301.91258     -5446.2554     -9.9341246      729000         90             0.06203364   
     23700   293.26602     -5755.5225      4.6010869      729000         90             0.06203364   
     23800   298.93167     -5508.3219      34.839986      729000         90             0.06203364   
     23900   300.21152     -5741.5362      2.4140473      729000         90             0.06203364   
     24000   296.471       -5833.0277     -19.482013      729000         90             0.06203364   
     24100   296.36986     -5372.8787     -28.34495       729000         90             0.06203364   
     24200   301.91258     -5670.4907     -57.237866      729000         90             0.06203364   
     24300   304.79386     -5779.9338      41.125446      729000         90             0.06203364   
     24400   299.28002     -5386.9801     -40.735984      729000         90             0.06203364   
     24500   296.33215     -5702.3835      48.778858      729000         90             0.06203364   
     24600   299.33064     -5660.1919     -40.38823       729000         90             0.06203364   
     24700   303.83999     -5442.1582     -60.034696      729000         90             0.06203364   
     24800   306.07741     -5734.4697     -88.627754      729000         90             0.06203364   
     24900   298.93367     -5810.0066     -45.646957      729000         90             0.06203364   
     25000   299.48228     -5451.0276     -14.557876      729000         90             0.06203364   
     25100   299.97994     -5723.9449     -46.650544      729000         90             0.06203364   
     25200   300.40684     -5622.5627     -125.12674      729000         90             0.06203364   
     25300   302.70167     -5692.3645     -22.038715      729000         90             0.06203364   
     25400   309.71223     -6244.821      -15.618034      729000         90             0.06203364   
     25500   298.53729     -5649.6452     -30.384432      729000         90             0.06203364   
     25600   301.45662     -5477.2962     -20.570984      729000         90             0.06203364   
     25700   296.74208     -5882.6441      41.782549      729000         90             0.06203364   
     25800   299.70841     -5934.1512     -39.278275      729000         90             0.06203364   
     25900   294.51851     -5781.4913     -80.523859      729000         90             0.06203364   
     26000   296.43294     -5742.4827      1.7724336      729000         90             0.06203364   
     26100   298.94104     -5576.7294      8.0033756      729000         90             0.06203364   
     26200   298.48513     -6000.8201      63.115799      729000         90             0.06203364   
     26300   299.47162     -5846.9038     -32.112035      729000         90             0.06203364   
     26400   295.87919     -5687.1322     -42.064744      729000         90             0.06203364   
     26500   296.16844     -5741.4288     -6.5060912      729000         90             0.06203364   
     26600   303.6761      -6023.287      -27.874305      729000         90             0.06203364   
     26700   305.63025     -5756.0365     -58.448303      729000         90             0.06203364   
     26800   298.45478     -6038.9851      42.310558      729000         90             0.06203364   
     26900   296.28981     -5646.4782      92.925235      729000         90             0.06203364   
     27000   298.36728     -5794.2119      34.127421      729000         90             0.06203364   
     27100   300.54201     -5755.8797     -56.535848      729000         90             0.06203364   
     27200   305.87721     -5647.2557      45.240872      729000         90             0.06203364   
     27300   304.96375     -5523.8108     -7.6250121      729000         90             0.06203364   
     27400   304.32694     -5601.3089     -68.877791      729000         90             0.06203364   
     27500   296.09348     -5819.1181     -77.116133      729000         90             0.06203364   
     27600   300.02478     -5489.6566      1.5924399      729000         90             0.06203364   
     27700   305.51542     -5564.4089      22.286389      729000         90             0.06203364   
     27800   308.91221     -5870.2451      37.474729      729000         90             0.06203364   
     27900   299.06249     -6044.3271      35.747788      729000         90             0.06203364   
     28000   296.53739     -5852.666      -109.73426      729000         90             0.06203364   
     28100   293.19777     -5707.7308      5.9653396      729000         90             0.06203364   
     28200   303.4865      -5898.5774     -19.802971      729000         90             0.06203364   
     28300   306.69117     -5828.7377      76.175899      729000         90             0.06203364   
     28400   295.82424     -6357.2655     -59.616029      729000         90             0.06203364   
     28500   299.88552     -5871.4168      29.79596       729000         90             0.06203364   
     28600   295.40915     -5736.1945      30.193346      729000         90             0.06203364   
     28700   299.02181     -5663.2594      72.198194      729000         90             0.06203364   
     28800   301.38058     -6480.81       -89.13791       729000         90             0.06203364   
     28900   300.79155     -5982.184       3.5198224      729000         90             0.06203364   
     29000   298.22645     -5797.8828      31.797181      729000         90             0.06203364   
     29100   301.24257     -6190.9338     -71.689757      729000         90             0.06203364   
     29200   296.64302     -6074.014      -59.612596      729000         90             0.06203364   
     29300   296.06285     -5635.3083      28.640386      729000         90             0.06203364   
     29400   300.8617      -5653.2563      10.751499      729000         90             0.06203364   
     29500   302.464       -5895.7347     -44.90755       729000         90             0.06203364   
     29600   297.79479     -5912.4785     -32.568698      729000         90             0.06203364   
     29700   301.41008     -6356.2266     -169.11364      729000         90             0.06203364   
     29800   298.14298     -6084.1003      37.477662      729000         90             0.06203364   
     29900   297.20542     -6028.2212      80.386792      729000         90             0.06203364   
     30000   302.133       -5818.0069     -2.99539        729000         90             0.06203364   
     30100   310.3265      -6014.5261      32.228233      729000         90             0.06203364   
     30200   293.87485     -5640.7076      113.05655      729000         90             0.06203364   
     30300   299.73764     -5833.6218     -22.722435      729000         90             0.06203364   
     30400   296.36804     -6066.0634     -57.408569      729000         90             0.06203364   
     30500   297.70044     -5882.0557      2.5294412      729000         90             0.06203364   
     30600   306.69982     -6258.5073     -28.506723      729000         90             0.06203364   
     30700   307.34733     -5818.1535      24.709693      729000         90             0.06203364   
     30800   302.21967     -6155.266      -24.480495      729000         90             0.06203364   
     30900   298.07146     -5999.1596      22.575347      729000         90             0.06203364   
     31000   306.40732     -6090.3265     -2.277176       729000         90             0.06203364   
     31100   295.42988     -6049.2862     -41.477201      729000         90             0.06203364   
     31200   305.04935     -5884.3636      60.092615      729000         90             0.06203364   
     31300   301.18142     -6030.5441      79.676145      729000         90             0.06203364   
     31400   298.70839     -6028.8902      26.744157      729000         90             0.06203364   
     31500   294.73831     -6171.55        9.6122374      729000         90             0.06203364   
     31600   297.59677     -6109.3937     -52.447557      729000         90             0.06203364   
     31700   301.83717     -6210.3647     -27.72212       729000         90             0.06203364   
     31800   306.82891     -6124.5753      17.486178      729000         90             0.06203364   
     31900   302.14526     -6129.318      -87.530119      729000         90             0.06203364   
     32000   300.77411     -5852.0625      177.32162      729000         90             0.06203364   
     32100   298.60448     -5832.3198     -65.756049      729000         90             0.06203364   
     32200   296.4758      -6022.9809     -33.911393      729000         90             0.06203364   
     32300   301.89042     -5878.2632     -55.25468       729000         90             0.06203364   
     32400   300.10775     -6175.3665     -74.92861       729000         90             0.06203364   
     32500   300.22184     -6216.921       81.807447      729000         90             0.06203364   
     32600   290.96681     -6231.8439     -50.784555      729000         90             0.06203364   
     32700   295.95658     -6285.9185      93.269115      729000         90             0.06203364   
     32800   302.15636     -6197.1955     -53.514559      729000         90             0.06203364   
     32900   302.80454     -5792.1899     -20.984118      729000         90             0.06203364   
     33000   302.45776     -6561.5842      25.000656      729000         90             0.06203364   
     33100   299.95443     -5794.2423      56.813072      729000         90             0.06203364   
     33200   288.80366     -6538.5823     -101.25095      729000         90             0.06203364   
     33300   297.60122     -6385.6972     -21.305658      729000         90             0.06203364   
     33400   301.89359     -6352.9519      65.581837      729000         90             0.06203364   
     33500   298.50609     -6387.8898      54.592926      729000         90             0.06203364   
     33600   300.29094     -6282.477      -37.686176      729000         90             0.06203364   
     33700   292.50294     -6020.6023      8.8699216      729000         90             0.06203364   
     33800   298.57463     -6280.9221      8.5248045      729000         90             0.06203364   
     33900   297.58332     -5958.6363      45.126258      729000         90             0.06203364   
     34000   306.71042     -6194.7277     -26.67198       729000         90             0.06203364   
     34100   300.57093     -6170.1623      22.903316      729000         90             0.06203364   
     34200   299.58921     -6260.4207     -57.699438      729000         90             0.06203364   
     34300   304.98535     -5961.2613      59.755211      729000         90             0.06203364   
     34400   299.93246     -5643.8487     -32.535249      729000         90             0.06203364   
     34500   299.30719     -6000.8801     -40.726551      729000         90             0.06203364   
     34600   296.23263     -6090.2492      6.1440282      729000         90             0.06203364   
     34700   304.38093     -6114.6293     -33.546717      729000         90             0.06203364   
     34800   300.41377     -5857.5771      46.073578      729000         90             0.06203364   
     34900   295.13546     -5961.359      -3.3798843      729000         90             0.06203364   
     35000   300.48543     -6215.8015      38.546827      729000         90             0.06203364   
     35100   295.84041     -5824.9119     -43.00096       729000         90             0.06203364   
     35200   298.00055     -6090.807      -160.63139      729000         90             0.06203364   
     35300   310.25038     -5893.1718      32.930338      729000         90             0.06203364   
     35400   306.79088     -6213.0342     -11.751913      729000         90             0.06203364   
     35500   303.63365     -6135.0766     -14.92307       729000         90             0.06203364   
     35600   297.87273     -6052.3087      11.070288      729000         90             0.06203364   
     35700   302.67621     -6320.8503     -37.823754      729000         90             0.06203364   
     35800   299.27879     -6406.5005     -54.945029      729000         90             0.06203364   
     35900   299.68131     -6183.8587     -142.6282       729000         90             0.06203364   
     36000   299.10807     -6208.3528      38.009071      729000         90             0.06203364   
     36100   309.17731     -5885.7312      52.90276       729000         90             0.06203364   
     36200   303.42238     -6179.2465     -43.765178      729000         90             0.06203364   
     36300   302.30163     -6280.2804     -69.191587      729000         90             0.06203364   
     36400   299.51882     -6193.3619      56.912845      729000         90             0.06203364   
     36500   306.48096     -6426.0639     -4.3547493      729000         90             0.06203364   
     36600   300.52811     -6432.9033      52.76276       729000         90             0.06203364   
     36700   311.0635      -6826.7268      67.233929      729000         90             0.06203364   
     36800   305.72148     -6352.4565     -9.5772862      729000         90             0.06203364   
     36900   297.17275     -5901.8413      19.846719      729000         90             0.06203364   
     37000   297.38066     -6162.601      -79.704497      729000         90             0.06203364   
     37100   302.22121     -6351.4377     -1.4634485      729000         90             0.06203364   
     37200   299.6732      -5810.9642     -41.48213       729000         90             0.06203364   
     37300   304.75984     -6127.6638      54.57209       729000         90             0.06203364   
     37400   308.11005     -6163.0834      79.300911      729000         90             0.06203364   
     37500   297.98375     -6387.7925     -81.214919      729000         90             0.06203364   
     37600   294.1546      -6181.4996     -83.632463      729000         90             0.06203364   
     37700   301.32785     -6088.0386      37.409969      729000         90             0.06203364   
     37800   296.72274     -6365.2515     -11.249992      729000         90             0.06203364   
     37900   301.54433     -6171.7626      15.752243      729000         90             0.06203364   
     38000   300.19923     -5992.637       54.40721       729000         90             0.06203364   
     38100   294.76567     -6218.3267      26.544854      729000         90             0.06203364   
     38200   300.48897     -6571.2745     -59.257397      729000         90             0.06203364   
     38300   304.30654     -6140.4049      72.72371       729000         90             0.06203364   
     38400   300.86129     -6065.5465     -8.8955345      729000         90             0.06203364   
     38500   301.23213     -6199.0409     -15.242711      729000         90             0.06203364   
     38600   296.70833     -6382.8301      20.473392      729000         90             0.06203364   
     38700   293.70677     -5782.9347     -38.322044      729000         90             0.06203364   
     38800   299.53959     -6224.2965      55.976841      729000         90             0.06203364   
     38900   306.58813     -6681.0947     -22.224461      729000         90             0.06203364   
     39000   300.04957     -6132.7431     -77.922127      729000         90             0.06203364   
     39100   298.87202     -6445.0998      26.373308      729000         90             0.06203364   
     39200   298.78818     -6079.7758      9.291756       729000         90             0.06203364   
     39300   301.9796      -6142.5138      91.315178      729000         90             0.06203364   
     39400   299.4993      -6414.5865     -93.768294      729000         90             0.06203364   
     39500   298.6151      -6606.6926     -43.024083      729000         90             0.06203364   
     39600   306.89852     -6085.7812     -42.092657      729000         90             0.06203364   
     39700   302.98755     -6238.4822     -83.508225      729000         90             0.06203364   
     39800   300.86411     -6442.8847     -34.554452      729000         90             0.06203364   
     39900   295.04901     -6086.4143     -84.503889      729000         90             0.06203364   
     40000   298.72188     -6194.6555     -29.164765      729000         90             0.06203364   
     40100   300.99846     -6127.1843     -48.59156       729000         90             0.06203364   
     40200   307.64861     -6103.5531     -40.138696      729000         90             0.06203364   
     40300   295.55127     -6182.7339     -144.64958      729000         90             0.06203364   
     40400   288.73114     -5924.866       62.579944      729000         90             0.06203364   
     40500   296.74313     -5902.4055      48.931868      729000         90             0.06203364   
     40600   303.33679     -6414.6851     -1.8399532      729000         90             0.06203364   
     40700   297.00278     -6306.8269     -66.269234      729000         90             0.06203364   
     40800   303.79455     -6294.989       6.6828198      729000         90             0.06203364   
     40900   295.38148     -6339.4855     -96.583706      729000         90             0.06203364   
     41000   295.59138     -6604.7969      58.619035      729000         90             0.06203364   
     41100   294.40269     -6522.2541      40.162358      729000         90             0.06203364   
     41200   299.48872     -6055.7601      39.619512      729000         90             0.06203364   
     41300   303.66174     -5916.6904      11.238547      729000         90             0.06203364   
     41400   301.72791     -6063.7456     -73.989026      729000         90             0.06203364   
     41500   299.11461     -6396.3901     -107.59304      729000         90             0.06203364   
     41600   293.0242      -6371.0945     -18.629745      729000         90             0.06203364   
     41700   289.66766     -6120.2944      42.360585      729000         90             0.06203364   
     41800   291.76383     -6583.372      -64.66041       729000         90             0.06203364   
     41900   302.04304     -6249.9892      34.870217      729000         90             0.06203364   
     42000   304.07695     -6423.4196      26.318227      729000         90             0.06203364   
     42100   297.95472     -6253.5504     -84.560771      729000         90             0.06203364   
     42200   297.06115     -6390.2659      15.440548      729000         90             0.06203364   
     42300   297.1947      -6444.7512     -64.569283      729000         90             0.06203364   
     42400   296.71946     -6105.2893     -44.974963      729000         90             0.06203364   
     42500   307.33218     -6125.7621     -134.35978      729000         90             0.06203364   
     42600   308.08156     -6490.7389     -24.635869      729000         90             0.06203364   
     42700   306.2653      -6371.5799      80.034942      729000         90             0.06203364   
     42800   295.01164     -6292.2567     -36.996481      729000         90             0.06203364   
     42900   293.69017     -6311.7279      22.712529      729000         90             0.06203364   
     43000   294.26373     -6684.9894     -59.011729      729000         90             0.06203364   
     43100   302.37762     -6242.1174      87.470349      729000         90             0.06203364   
     43200   303.75753     -6364.4548      25.950863      729000         90             0.06203364   
     43300   308.31965     -6418.3861      91.820145      729000         90             0.06203364   
     43400   302.34423     -6352.6961      43.988817      729000         90             0.06203364   
     43500   301.23687     -6364.8004     -80.074379      729000         90             0.06203364   
     43600   297.00913     -6156.046       15.077179      729000         90             0.06203364   
     43700   294.44325     -6297.5271     -63.055748      729000         90             0.06203364   
     43800   301.02513     -6358.8099     -17.980365      729000         90             0.06203364   
     43900   303.85785     -6220.024      -27.32909       729000         90             0.06203364   
     44000   305.51563     -6286.4853     -18.119308      729000         90             0.06203364   
     44100   304.08751     -5943.977       82.1734        729000         90             0.06203364   
     44200   304.44236     -6189.1383      13.696405      729000         90             0.06203364   
     44300   297.72059     -6143.0636     -0.71882168     729000         90             0.06203364   
     44400   297.66022     -6258.3529     -77.944001      729000         90             0.06203364   
     44500   302.7133      -6686.178      -25.55573       729000         90             0.06203364   
     44600   306.106       -6313.2535     -45.434406      729000         90             0.06203364   
     44700   296.94784     -6158.5527     -47.047554      729000         90             0.06203364   
     44800   298.85699     -6319.9371      35.019446      729000         90             0.06203364   
     44900   302.92691     -6378.4805     -62.707661      729000         90             0.06203364   
     45000   299.52482     -6367.5916      56.975445      729000         90             0.06203364   
     45100   294.58662     -5824.3301     -56.957287      729000         90             0.06203364   
     45200   303.03508     -6160.0295      5.0131165      729000         90             0.06203364   
     45300   300.4384      -5809.7092     -35.518744      729000         90             0.06203364   
     45400   300.43949     -6276.7774     -50.989758      729000         90             0.06203364   
     45500   295.5517      -6394.3308     -81.995623      729000         90             0.06203364   
     45600   293.23415     -6501.9794      8.2392045      729000         90             0.06203364   
     45700   303.13074     -6321.2728      3.0047888      729000         90             0.06203364   
     45800   307.71361     -6268.6202      30.328043      729000         90             0.06203364   
     45900   305.44246     -6586.5421     -124.51056      729000         90             0.06203364   
     46000   299.42041     -6296.3305      17.390824      729000         90             0.06203364   
     46100   292.77574     -6652.7781     -49.313244      729000         90             0.06203364   
     46200   295.98565     -6951.7148     -56.285342      729000         90             0.06203364   
     46300   298.54078     -6555.5252     -50.495481      729000         90             0.06203364   
     46400   309.19289     -6406.3153     -20.659419      729000         90             0.06203364   
     46500   308.04289     -6485.832      -74.199523      729000         90             0.06203364   
     46600   303.66683     -6582.1526     -16.864154      729000         90             0.06203364   
     46700   296.00691     -6449.9452      53.260499      729000         90             0.06203364   
     46800   297.79193     -7033.0127     -50.207356      729000         90             0.06203364   
     46900   301.72414     -6675.8994      46.411959      729000         90             0.06203364   
     47000   300.90771     -6641.0639      73.686294      729000         90             0.06203364   
     47100   306.01396     -6842.4298     -6.1679733      729000         90             0.06203364   
     47200   292.31437     -6653.5747     -74.643989      729000         90             0.06203364   
     47300   301.02815     -6523.1717      6.8780235      729000         90             0.06203364   
     47400   298.84985     -6476.4377     -94.622758      729000         90             0.06203364   
     47500   293.72463     -6330.9503     -63.450083      729000         90             0.06203364   
     47600   299.32437     -6304.6302     -77.457006      729000         90             0.06203364   
     47700   301.2015      -6711.1812      8.1470174      729000         90             0.06203364   
     47800   291.19823     -6247.9791      13.833288      729000         90             0.06203364   
     47900   292.36687     -6447.9872     -7.6087777      729000         90             0.06203364   
     48000   297.21895     -6512.989       28.53676       729000         90             0.06203364   
     48100   298.88974     -6531.517       44.804288      729000         90             0.06203364   
     48200   304.20488     -6872.0874     -38.943013      729000         90             0.06203364   
     48300   300.24425     -6695.7185     -13.474064      729000         90             0.06203364   
     48400   294.12002     -6571.7743     -51.879516      729000         90             0.06203364   
     48500   303.19768     -6605.4092     -52.077722      729000         90             0.06203364   
     48600   296.98322     -6814.7077     -58.296755      729000         90             0.06203364   
     48700   301.46943     -6672.1922     -47.995797      729000         90             0.06203364   
     48800   300.39368     -6681.1045      40.65219       729000         90             0.06203364   
     48900   299.16473     -6444.8953      22.256991      729000         90             0.06203364   
     49000   299.13375     -6529.04       -93.157155      729000         90             0.06203364   
     49100   292.55193     -6509.0102      41.45103       729000         90             0.06203364   
     49200   300.0751      -6796.624      -97.40369       729000         90             0.06203364   
     49300   301.14272     -6579.6575      30.805614      729000         90             0.06203364   
     49400   303.23059     -6550.7478     -57.199414      729000         90             0.06203364   
     49500   304.25983     -6548.2413      37.969472      729000         90             0.06203364   
     49600   298.62048     -6334.3824     -79.467441      729000         90             0.06203364   
     49700   298.04511     -6054.2658     -64.762978      729000         90             0.06203364   
     49800   292.63856     -6307.8142      62.301277      729000         90             0.06203364   
     49900   295.0957      -6477.2951     -44.666404      729000         90             0.06203364   
     50000   302.0892      -7039.091       15.198105      729000         90             0.06203364   
     50100   300.49059     -7021.71        12.168307      729000         90             0.06203364   
     50200   304.97495     -7000.4181     -78.869299      729000         90             0.06203364   
     50300   297.58071     -6824.4029     -1.1295508      729000         90             0.06203364   
     50400   297.64241     -6827.9914      31.812845      729000         90             0.06203364   
     50500   296.695       -7096.7378      11.243283      729000         90             0.06203364   
     50600   304.87347     -6774.0743      48.312587      729000         90             0.06203364   
     50700   296.33592     -6838.7069     -137.49192      729000         90             0.06203364   
     50800   298.08952     -6934.1529     -20.81443       729000         90             0.06203364   
     50900   300.14984     -6703.0647      132.56613      729000         90             0.06203364   
     51000   300.20068     -7113.1093      48.826335      729000         90             0.06203364   
     51100   307.29272     -7174.9894     -93.625435      729000         90             0.06203364   
     51200   302.46921     -7033.5845      2.0553985      729000         90             0.06203364   
     51300   298.42718     -6920.5482     -33.252302      729000         90             0.06203364   
     51400   295.23183     -6656.1847     -11.515237      729000         90             0.06203364   
     51500   297.67879     -6926.5404      44.920404      729000         90             0.06203364   
     51600   302.31774     -6788.16        102.99945      729000         90             0.06203364   
     51700   300.58172     -6851.3645      43.253609      729000         90             0.06203364   
     51800   295.36355     -6850.2946     -36.841826      729000         90             0.06203364   
     51900   297.0049      -7100.715      -78.995835      729000         90             0.06203364   
     52000   290.15822     -7406.0899     -40.30215       729000         90             0.06203364   
     52100   302.43886     -6839.6528      3.4795008      729000         90             0.06203364   
     52200   303.00403     -6552.6108      64.16119       729000         90             0.06203364   
     52300   304.19418     -6942.9129      17.022944      729000         90             0.06203364   
     52400   303.31571     -7332.5838     -163.68419      729000         90             0.06203364   
     52500   293.98394     -7459.3508      40.628436      729000         90             0.06203364   
     52600   297.78548     -7489.7371     -47.112947      729000         90             0.06203364   
     52700   298.74356     -7216.8454     -85.612161      729000         90             0.06203364   
     52800   300.13607     -7090.2094      1.2747908      729000         90             0.06203364   
     52900   302.40499     -7111.2786      66.772837      729000         90             0.06203364   
     53000   299.0727      -7287.9769      34.753665      729000         90             0.06203364   
     53100   296.36479     -7143.5936      1.9134373      729000         90             0.06203364   
     53200   298.35103     -6972.9398     -10.707958      729000         90             0.06203364   
     53300   306.55295     -7097.6106     -1.9340216      729000         90             0.06203364   
     53400   311.48552     -6941.5374     -65.190879      729000         90             0.06203364   
     53500   304.25804     -6619.3503     -26.341459      729000         90             0.06203364   
     53600   303.73391     -6899.4727      42.047725      729000         90             0.06203364   
     53700   297.63649     -7156.1723      30.017669      729000         90             0.06203364   
     53800   301.38775     -7460.4118      21.052366      729000         90             0.06203364   
     53900   299.40606     -7676.1435     -102.13764      729000         90             0.06203364   
     54000   303.82773     -7009.8283     -77.881469      729000         90             0.06203364   
     54100   306.4379      -7226.9225      9.0304031      729000         90             0.06203364   
     54200   301.24835     -7006.0239     -58.802436      729000         90             0.06203364   
     54300   299.07651     -7159.5855      7.0392316      729000         90             0.06203364   
     54400   306.63176     -7196.4225     -58.468123      729000         90             0.06203364   
     54500   298.48789     -7122.8389      125.92724      729000         90             0.06203364   
     54600   299.82153     -7023.9544     -3.531963       729000         90             0.06203364   
     54700   303.23712     -7129.9856     -72.879557      729000         90             0.06203364   
     54800   302.95923     -6962.0336      73.582643      729000         90             0.06203364   
     54900   298.66138     -7157.0289      22.973298      729000         90             0.06203364   
     55000   307.29433     -7483.3001     -42.250234      729000         90             0.06203364   
     55100   300.00318     -7399.609      -1.01921        729000         90             0.06203364   
     55200   296.52924     -7344.6656      158.9495       729000         90             0.06203364   
     55300   298.78179     -7831.6203     -80.856003      729000         90             0.06203364   
     55400   300.50558     -7646.0835      25.2915        729000         90             0.06203364   
     55500   301.99021     -7032.8702     -23.623343      729000         90             0.06203364   
     55600   297.18269     -7275.6656     -78.711411      729000         90             0.06203364   
     55700   303.87426     -7239.5002      23.136999      729000         90             0.06203364   
     55800   297.78163     -7093.1214     -9.4062897      729000         90             0.06203364   
     55900   303.4753      -7532.2179      55.10057       729000         90             0.06203364   
     56000   294.96232     -7059.2547     -45.430211      729000         90             0.06203364   
     56100   293.49691     -7504.1394     -76.332122      729000         90             0.06203364   
     56200   301.40398     -7475.9367     -92.031276      729000         90             0.06203364   
     56300   302.60968     -7281.2371      50.404943      729000         90             0.06203364   
     56400   301.92154     -7496.0991     -26.68131       729000         90             0.06203364   
     56500   300.10372     -7113.9161      3.5304323      729000         90             0.06203364   
     56600   294.31382     -7287.0355      51.060413      729000         90             0.06203364   
     56700   292.68701     -7523.5351      16.344502      729000         90             0.06203364   
     56800   300.66482     -7654.4401      41.730212      729000         90             0.06203364   
     56900   302.4975      -7093.9678      70.809897      729000         90             0.06203364   
     57000   301.78075     -6976.7911     -39.693502      729000         90             0.06203364   
     57100   300.7383      -7514.9189     -101.00081      729000         90             0.06203364   
     57200   292.4704      -7446.4849     -64.548858      729000         90             0.06203364   
     57300   300.54747     -7819.8772      18.596679      729000         90             0.06203364   
     57400   306.99187     -7224.6327      40.171353      729000         90             0.06203364   
     57500   300.63189     -7475.6723     -40.609808      729000         90             0.06203364   
     57600   300.39997     -7412.705      -72.608124      729000         90             0.06203364   
     57700   294.0051      -7601.9029      7.8074033      729000         90             0.06203364   
     57800   292.33634     -7544.8724      25.291497      729000         90             0.06203364   
     57900   307.23639     -7195.9503      28.533237      729000         90             0.06203364   
     58000   301.11693     -7065.6566     -125.24208      729000         90             0.06203364   
     58100   304.55271     -7059.4971     -87.658967      729000         90             0.06203364   
     58200   302.68955     -7353.1748     -33.903557      729000         90             0.06203364   
     58300   302.98489     -7152.3544      43.885246      729000         90             0.06203364   
     58400   301.62829     -7408.5799     -90.412251      729000         90             0.06203364   
     58500   296.64556     -6994.8964     -135.50592      729000         90             0.06203364   
     58600   301.54824     -6470.15        89.173945      729000         90             0.06203364   
     58700   305.91896     -6802.2017     -72.453242      729000         90             0.06203364   
     58800   304.20342     -7196.9446     -42.48925       729000         90             0.06203364   
     58900   301.93082     -7365.5365     -98.369785      729000         90             0.06203364   
     59000   298.38338     -7367.2534     -38.579851      729000         90             0.06203364   
     59100   299.51453     -7440.4291      43.76307       729000         90             0.06203364   
     59200   303.94808     -7180.8373      46.124719      729000         90             0.06203364   
     59300   304.34558     -7376.6201     -27.075329      729000         90             0.06203364   
     59400   309.05198     -7510.2518     -17.948727      729000         90             0.06203364   
     59500   297.63604     -6996.315      -13.961302      729000         90             0.06203364   
     59600   305.5736      -7243.9426     -21.244396      729000         90             0.06203364   
     59700   292.67359     -7667.2074     -100.25197      729000         90             0.06203364   
     59800   295.58586     -7599.3924     -97.227744      729000         90             0.06203364   
     59900   298.37369     -7150.0039     -21.671172      729000         90             0.06203364   
     60000   309.54096     -7605.1297      28.203695      729000         90             0.06203364   
     60100   305.29352     -7264.1448     -28.886093      729000         90             0.06203364   
     60200   304.54852     -7650.2987     -81.888771      729000         90             0.06203364   
     60300   300.02465     -7185.4184      85.809551      729000         90             0.06203364   
     60400   294.46403     -7431.9205     -108.099        729000         90             0.06203364   
     60500   295.95694     -7240.3469      24.220135      729000         90             0.06203364   
     60600   307.97484     -7716.6321      175.07667      729000         90             0.06203364   
     60700   303.78462     -7087.7862     -12.81934       729000         90             0.06203364   
     60800   295.18113     -7457.3757      1.112451       729000         90             0.06203364   
     60900   293.0485      -7480.5176     -58.786327      729000         90             0.06203364   
     61000   304.33321     -7313.6978     -6.6962506      729000         90             0.06203364   
     61100   301.4335      -7267.5668      10.628708      729000         90             0.06203364   
     61200   306.54713     -7533.8188      49.628769      729000         90             0.06203364   
     61300   295.75431     -7257.5368     -66.337404      729000         90             0.06203364   
     61400   294.58874     -7205.149       7.164841       729000         90             0.06203364   
     61500   294.1563      -7515.1897     -97.836463      729000         90             0.06203364   
     61600   301.24093     -8049.642      -153.35342      729000         90             0.06203364   
     61700   297.91725     -6871.8657     -59.015546      729000         90             0.06203364   
     61800   302.81191     -7596.75       -83.924776      729000         90             0.06203364   
     61900   302.05468     -7451.8264     -54.240235      729000         90             0.06203364   
     62000   303.6871      -7125.9127     -8.6585058      729000         90             0.06203364   
     62100   297.7006      -7521.8699      71.390326      729000         90             0.06203364   
     62200   298.40127     -7430.4826      6.1609549      729000         90             0.06203364   
     62300   300.67136     -7495.5473      24.636675      729000         90             0.06203364   
     62400   300.20437     -7045.8034     -17.892837      729000         90             0.06203364   
     62500   308.69999     -7114.2541     -73.261192      729000         90             0.06203364   
     62600   296.96533     -7254.0791     -19.086372      729000         90             0.06203364   
     62700   294.97738     -7364.3634      7.7080209      729000         90             0.06203364   
     62800   303.35165     -7502.6809      96.164623      729000         90             0.06203364   
     62900   302.8501      -7124.8411     -18.071957      729000         90             0.06203364   
     63000   302.57503     -7396.7279      48.572761      729000         90             0.06203364   
     63100   301.74731     -7313.7727      4.8125952      729000         90             0.06203364   
     63200   298.56012     -7474.8671     -5.8879847      729000         90             0.06203364   
     63300   306.72059     -7852.887      -44.853164      729000         90             0.06203364   
     63400   296.20731     -7472.0063     -42.063286      729000         90             0.06203364   
     63500   296.15088     -7808.1116     -48.909288      729000         90             0.06203364   
     63600   294.3946      -7080.9135     -43.801085      729000         90             0.06203364   
     63700   302.10029     -7407.4331     -35.300736      729000         90             0.06203364   
     63800   295.04836     -7326.2481      17.430995      729000         90             0.06203364   
     63900   298.326       -7476.0788      5.4863116      729000         90             0.06203364   
     64000   298.2746      -7255.3514     -94.174374      729000         90             0.06203364   
     64100   295.66204     -7513.1327     -5.2790837      729000         90             0.06203364   
     64200   291.80962     -7449.6303     -39.939493      729000         90             0.06203364   
     64300   303.75875     -7442.0119      33.272372      729000         90             0.06203364   
     64400   303.86131     -7624.5866      127.35961      729000         90             0.06203364   
     64500   299.11413     -7422.662      -52.670335      729000         90             0.06203364   
     64600   295.46494     -7412.2223     -73.613392      729000         90             0.06203364   
     64700   301.62911     -7799.5561      15.144836      729000         90             0.06203364   
     64800   297.00459     -7443.5999      37.047355      729000         90             0.06203364   
     64900   301.47906     -7043.6717      6.2594474      729000         90             0.06203364   
     65000   298.20584     -6873.4132     -16.781774      729000         90             0.06203364   
     65100   304.35881     -7182.1489      134.05893      729000         90             0.06203364   
     65200   305.53965     -7507.0207     -11.713409      729000         90             0.06203364   
     65300   296.01606     -7672.4203     -57.709573      729000         90             0.06203364   
     65400   296.88135     -7292.3227      56.93145       729000         90             0.06203364   
     65500   303.11548     -7609.3781      55.110476      729000         90             0.06203364   
     65600   302.25592     -6674.4229     -37.485619      729000         90             0.06203364   
     65700   296.92609     -7328.7851     -9.3490917      729000         90             0.06203364   
     65800   298.27779     -7693.173       10.835604      729000         90             0.06203364   
     65900   301.19559     -7759.0169      28.562489      729000         90             0.06203364   
     66000   295.85627     -7183.2245     -16.146765      729000         90             0.06203364   
     66100   304.67247     -7715.2666      0.65020334     729000         90             0.06203364   
     66200   301.33464     -7747.8111     -40.252173      729000         90             0.06203364   
     66300   302.35284     -7686.2714     -63.016476      729000         90             0.06203364   
     66400   302.4898      -7650.8342     -5.5022882      729000         90             0.06203364   
     66500   300.77526     -7723.9806      30.295869      729000         90             0.06203364   
     66600   295.456       -7187.8939      16.694363      729000         90             0.06203364   
     66700   303.53068     -7035.8087     -22.551089      729000         90             0.06203364   
     66800   297.5406      -7194.1957     -17.372527      729000         90             0.06203364   
     66900   301.41846     -7609.7747     -43.113986      729000         90             0.06203364   
     67000   299.21716     -7854.0335     -43.68607       729000         90             0.06203364   
     67100   303.51298     -7636.3647     -67.306915      729000         90             0.06203364   
     67200   292.87951     -7288.8267      43.843638      729000         90             0.06203364   
     67300   299.36815     -7089.0003     -32.909678      729000         90             0.06203364   
     67400   296.27329     -7392.4438      4.1465778      729000         90             0.06203364   
     67500   298.26612     -7116.9661      22.912         729000         90             0.06203364   
     67600   296.87815     -7477.1232      79.920614      729000         90             0.06203364   
     67700   295.39166     -7623.8567     -24.215895      729000         90             0.06203364   
     67800   297.46562     -7600.9996      47.745029      729000         90             0.06203364   
     67900   297.42328     -7402.2417      55.823843      729000         90             0.06203364   
     68000   304.58177     -7704.8617      2.6639563      729000         90             0.06203364   
     68100   305.28841     -7341.9633     -55.566139      729000         90             0.06203364   
     68200   295.85562     -7256.6003      7.5246041      729000         90             0.06203364   
     68300   297.88444     -7533.0613     -99.262202      729000         90             0.06203364   
     68400   290.56171     -7579.3839     -54.683258      729000         90             0.06203364   
     68500   294.50831     -7481.6008     -62.232902      729000         90             0.06203364   
     68600   302.75937     -7624.7704     -56.808064      729000         90             0.06203364   
     68700   303.96817     -7521.0924      107.96507      729000         90             0.06203364   
     68800   300.86173     -7970.5888     -17.469595      729000         90             0.06203364   
     68900   299.92431     -7681.3957     -46.23406       729000         90             0.06203364   
     69000   293.81131     -7615.5741      23.545917      729000         90             0.06203364   
     69100   298.52193     -7310.8945     -35.851823      729000         90             0.06203364   
     69200   304.81834     -7660.3822     -35.678228      729000         90             0.06203364   
     69300   299.28195     -7435.7247     -48.690348      729000         90             0.06203364   
     69400   296.6324      -7756.0151     -71.758352      729000         90             0.06203364   
     69500   295.55598     -7551.0812     -2.5623836      729000         90             0.06203364   
     69600   305.13831     -7283.584       13.907141      729000         90             0.06203364   
     69700   293.31662     -7225.7356      3.0183595      729000         90             0.06203364   
     69800   297.8714      -7385.9842      59.792463      729000         90             0.06203364   
     69900   295.99457     -7392.4615     -11.233834      729000         90             0.06203364   
     70000   301.18683     -7282.8957     -56.789183      729000         90             0.06203364   
     70100   298.60564     -7382.0586     -21.452017      729000         90             0.06203364   
     70200   298.92221     -7230.2876      88.853983      729000         90             0.06203364   
     70300   292.88465     -7122.3269     -8.752928       729000         90             0.06203364   
     70400   296.81844     -7696.9577      46.688606      729000         90             0.06203364   
     70500   299.93725     -7514.6418      12.173776      729000         90             0.06203364   
     70600   303.34439     -7462.4806     -105.73334      729000         90             0.06203364   
     70700   305.38064     -7543.3527      30.761663      729000         90             0.06203364   
     70800   309.01357     -7349.0776      60.158047      729000         90             0.06203364   
     70900   304.05439     -7940.7909      100.9072       729000         90             0.06203364   
     71000   307.54019     -7579.7474     -22.422953      729000         90             0.06203364   
     71100   301.806       -8001.0264     -6.9455307      729000         90             0.06203364   
     71200   300.31868     -7874.3035      7.8437868      729000         90             0.06203364   
     71300   294.32111     -7734.7082     -51.005484      729000         90             0.06203364   
     71400   305.32086     -7540.5555      48.238471      729000         90             0.06203364   
     71500   301.19334     -7932.1842     -31.934314      729000         90             0.06203364   
     71600   296.34687     -7893.6284     -145.12534      729000         90             0.06203364   
     71700   292.91475     -7954.0903     -2.7542128      729000         90             0.06203364   
     71800   295.90161     -8160.3633     -71.496105      729000         90             0.06203364   
     71900   303.5784      -7612.8751     -81.54269       729000         90             0.06203364   
     72000   310.94456     -8012.6041     -5.1045454      729000         90             0.06203364   
     72100   298.35841     -7447.6642     -55.890214      729000         90             0.06203364   
     72200   300.1148      -7330.5194      99.044235      729000         90             0.06203364   
     72300   300.18127     -7941.1039     -103.46404      729000         90             0.06203364   
     72400   304.36815     -7731.2111     -51.535093      729000         90             0.06203364   
     72500   304.25412     -7966.2933      8.6176448      729000         90             0.06203364   
     72600   310.66527     -7657.2262     -112.09664      729000         90             0.06203364   
     72700   304.53018     -7925.4342      13.597577      729000         90             0.06203364   
     72800   299.92443     -8166.4168      4.661089       729000         90             0.06203364   
     72900   303.12065     -8249.1246     -42.400823      729000         90             0.06203364   
     73000   295.36644     -8063.3586     -26.700696      729000         90             0.06203364   
     73100   302.41105     -8091.7341     -35.539635      729000         90             0.06203364   
     73200   300.98523     -7982.6122     -97.904534      729000         90             0.06203364   
     73300   307.5332      -8279.5472     -25.919441      729000         90             0.06203364   
     73400   296.64533     -7780.8655      45.948874      729000         90             0.06203364   
     73500   296.91887     -7996.3967      103.97281      729000         90             0.06203364   
     73600   298.63833     -8223.3297      47.871228      729000         90             0.06203364   
     73700   293.51469     -8422.1395     -47.763045      729000         90             0.06203364   
     73800   299.14181     -8119.3816     -31.29392       729000         90             0.06203364   
[...]
   1182100   299.46166     -10607.049     -1347.2629      50616.483      36.991106      0.89343473   
   1182200   295.24671     -10801.725      673.59093      50734.63       37.019865      0.89135415   
   1182300   296.97286     -10254.27      -1197.4069      50893.172      37.058387      0.88857742   
   1182400   300.23845     -10685.406      722.24236      50908.492      37.062105      0.88831001   
   1182500   298.62337     -10231.336     -651.37705      50959.122      37.074387      0.88742744   
   1182600   297.40198     -10010.052     -1432.4254      51088.365      37.105703      0.88518243   
   1182700   304.22644     -10519.887      753.15541      50650.111      36.999297      0.89284155   
   1182800   302.1348      -10644.957     -816.59299      50485.103      36.959074      0.89575975   
   1182900   299.03465     -10319.294     -395.50226      50230.691      36.896886      0.90029667   
   1183000   298.78539     -10909.546     -1964.2319      50295.832      36.912829      0.89913064   
   1183100   298.984       -10475.443      883.98947      50125.972      36.871228      0.90217748   
   1183200   300.75546     -10518.544     -886.51882      50210.805      36.892016      0.90065323   
   1183300   309.62598     -9695.9025      708.59703      50018.67       36.8449        0.90411287   
   1183400   308.53066     -10512.107     -210.90208      50655.121      37.000516      0.89275324   
   1183500   296.95317     -10639.886     -662.14242      50797.607      37.035177      0.89024909   
   1183600   299.82622     -10183.776      155.96293      50690.083      37.009027      0.89213749   
   1183700   301.40314     -10382.24       1019.6437      50530.863      36.970237      0.89494856   
   1183800   300.88338     -10494.934      353.16471      50961.413      37.074942      0.88738756   
   1183900   303.54102     -10532.525      349.66668      51254.38       37.145852      0.88231529   
   1184000   307.55474     -10023.442      313.53085      51321.724      37.162114      0.88115752   
   1184100   305.07756     -10338.579     -55.86658       51091.271      37.106407      0.88513209   
   1184200   300.45668     -10922.576     -701.40237      51356.222      37.170439      0.88056562   
   1184300   297.84376     -10508.184      645.81979      50998.135      37.083846      0.88674857   
   1184400   296.98083     -10437.456     -956.13167      50943.472      37.070591      0.88770007   
   1184500   304.38589     -10661.607     -68.456188      50742.983      37.021897      0.89120743   
   1184600   304.30274     -10231.374      207.39361      50332.585      36.921818      0.89847408   
   1184700   299.28119     -10016.876      381.96947      50209.301      36.891648      0.9006802    
   1184800   296.86098     -10655.597      1464.9415      50169.54       36.881907      0.90139402   
   1184900   295.85956     -9730.4727     -829.49202      50321.668      36.919149      0.898669     
   1185000   299.05353     -10205.737     -518.63869      50336.33       36.922734      0.89840724   
   1185100   299.49563     -10368.611     -149.90899      49935.783      36.824536      0.90561358   
   1185200   297.26517     -10185.765      1246.5629      49880.934      36.811049      0.9066094    
   1185300   302.42663     -10691.057      575.17811      50164.097      36.880573      0.90149183   
   1185400   298.22458     -10691.827     -92.093857      50647.387      36.998633      0.89288956   
   1185500   293.4652      -10581.2       -145.89613      50654.348      37.000328      0.89276687   
   1185600   299.20246     -10342.482      1528.9545      50759.006      37.025793      0.89092611   
   1185700   305.38144     -10154.259     -257.0669       50907.988      37.061982      0.88831881   
   1185800   308.01869     -10404.629      1546.5588      50825.905      37.042052      0.88975344   
   1185900   298.70238     -10544.174     -1446.146       50946.986      37.071444      0.88763884   
   1186000   301.47379     -10524.799     -873.97619      50896.612      37.059222      0.88851736   
   1186100   299.00685     -10330.523      922.48348      50961.439      37.074949      0.8873871    
   1186200   297.00523     -10369.439      343.54432      50780.421      37.030999      0.89055039   
   1186300   303.8244      -10314.807      52.460156      50441.591      36.948453      0.89653246   
   1186400   305.15094     -10948.168     -152.06897      50617.25       36.991293      0.89342119   
   1186500   298.49363     -10810.656      105.77292      50502.95       36.963429      0.8954432    
   1186600   298.93682     -10258.103     -1671.8199      50551.743      36.975329      0.89457891   
   1186700   300.17681     -10579.443      32.736551      50434.479      36.946716      0.89665888   
   1186800   292.52707     -10740.819     -449.62044      50661.828      37.002149      0.89263506   
   1186900   291.51926     -10242.693     -148.35297      50826.137      37.042109      0.88974938   
   1187000   302.40183     -10360.836      644.63671      51035.238      37.092837      0.8861039    
   1187100   301.95139     -10367.646     -608.50662      51115.334      37.112231      0.88471541   
   1187200   307.45607     -10138.053      2095.8299      50868.862      37.052485      0.88900207   
   1187300   296.54882     -10696.401     -696.87788      51133.374      37.116597      0.88440328   
   1187400   296.97023     -10821.75       729.7979       50736.015      37.020202      0.89132983   
   1187500   302.82472     -10814.672     -606.83233      50633.129      36.995161      0.893141     
   1187600   302.86451     -10607.624      623.2982       50575.254      36.98106       0.89416306   
   1187700   300.87742     -9926.8333     -1231.2193      50757.354      37.025391      0.8909551    
   1187800   303.06513     -9839.3768      511.40436      50855.47       37.049233      0.88923618   
   1187900   303.63127     -10248.709      100.31756      51040.765      37.094176      0.88600795   
   1188000   306.61838     -10232.746      1328.8594      50854.255      37.048938      0.88925742   
   1188100   297.08668     -10124.783     -675.77556      50851.193      37.048194      0.88931097   
   1188200   298.05118     -10269.07       1171.7034      50780.236      37.030954      0.89055363   
   1188300   295.22689     -10246.908     -533.25096      50804.642      37.036886      0.89012583   
   1188400   297.8429      -10562.793      981.76586      50632.363      36.994975      0.89315451   
   1188500   309.67371     -10415.747     -313.80831      50702.771      37.012115      0.89191423   
   1188600   300.61864     -10191.39       395.36264      50578.655      36.981889      0.89410293   
   1188700   302.25125     -10746.217     -82.363816      50342.21       36.924172      0.89830231   
   1188800   302.52887     -10628.553      1806.6134      50315.856      36.917727      0.89877282   
   1188900   298.7004      -10836.224      393.64935      50386.826      36.935076      0.8975069    
   1189000   300.02674     -10540.056     -1488.4653      50413.843      36.941677      0.89702591   
   1189100   307.13735     -10532.284      48.180439      50314.768      36.917461      0.89879225   
   1189200   303.22631     -10150.11       1100.8892      50046.634      36.851765      0.90360769   
   1189300   298.55993     -10855.224     -345.88188      50259.863      36.904028      0.89977411   
   1189400   297.52912     -10664.324     -1168.2145      50325.666      36.920126      0.89859762   
   1189500   300.90929     -10537.125     -1661.0939      50399.806      36.938248      0.89727575   
   1189600   298.87163     -10555.872     -825.98874      50483.299      36.958634      0.89579177   
   1189700   301.06994     -10015.865      1365.3306      50482.777      36.958506      0.89580103   
   1189800   299.04892     -10757.445     -21.273702      50753.628      37.024485      0.89102052   
   1189900   297.34308     -10149.874      532.85873      51059.764      37.098778      0.88567827   
   1190000   294.92892     -9978.1963     -214.73221      51254.846      37.145965      0.88230727   
   1190100   298.19177     -9963.4526      1747.2768      50955.038      37.073396      0.88749858   
   1190200   301.97995     -11064.532      1452.6609      51371.344      37.174087      0.88030641   
   1190300   298.82635     -10686.941     -1421.5539      51348.758      37.168638      0.88069362   
   1190400   302.39481     -10867.423      771.81032      50934.991      37.068534      0.88784787   
   1190500   292.46531     -10942.225     -1755.5198      50579.605      36.982121      0.89408613   
   1190600   295.81663     -10164.008      1008.0024      50355.905      36.927519      0.898058     
   1190700   301.09557     -10782.72      -302.5319       50392.94       36.93657       0.897398     
   1190800   298.75113     -10080.668      1014.2318      50105.26       36.866149      0.90255043   
   1190900   303.10526     -10151.56      -405.8652       50080.648      36.860112      0.90299397   
   1191000   294.22327     -10543.591     -186.65707      50010.339      36.842854      0.90426349   
   1191100   295.2711      -9843.3818      907.79033      50014.147      36.843789      0.90419463   
   1191200   295.19316     -10701.236     -527.96508      50246.176      36.900677      0.9000192    
   1191300   294.99511     -10395.33       1359.1344      50150.108      36.877145      0.90174329   
   1191400   304.65209     -10660.406     -1550.6322      50592.013      36.985144      0.89386686   
   1191500   299.1672      -10622.337     -1472.7513      50532.345      36.970599      0.89492232   
   1191600   307.18466     -10476.709      1222.7223      50455.532      36.951857      0.89628474   
   1191700   300.14727     -10287.613      245.02101      50488.887      36.959998      0.89569261   
   1191800   304.96452     -10214.338     -258.64841      50206.96       36.891075      0.90072219   
   1191900   296.29461     -10255.424     -565.90083      50608.899      36.989259      0.89356861   
   1192000   297.43062     -10047.191     -1017.9279      50440.26       36.948128      0.89655611   
   1192100   297.60556     -10446.475     -259.75151      50657.12       37.001003      0.892718     
   1192200   304.43544     -10020.6        438.4346       50422.333      36.94375       0.89687488   
   1192300   305.17827     -10826.312     -1621.5884      50546.883      36.974144      0.89466492   
   1192400   309.90177     -9968.8849      390.95595      50306.446      36.915425      0.89894094   
   1192500   297.51231     -10430.691      577.33811      50419.319      36.943014      0.89692849   
   1192600   297.32432     -10662.804     -1081.4114      50617.949      36.991464      0.89340885   
   1192700   297.83228     -10239.101     -411.58352      50370.598      36.931111      0.89779604   
   1192800   304.19647     -10597.812     -1065.3735      50628.274      36.993979      0.89322665   
   1192900   303.08311     -10684.694      587.26509      50615.262      36.990809      0.89345627   
   1193000   306.15392     -10276.425     -303.32166      50745.661      37.022548      0.89116039   
   1193100   306.56095     -10058.441      203.05518      50858.821      37.050047      0.88917758   
   1193200   306.0879      -10236.912      452.58452      50733.006      37.01947       0.89138269   
   1193300   305.38916     -10613.322      434.32987      50907.372      37.061833      0.88832957   
   1193400   294.68431     -10747.479     -981.21171      51086.145      37.105166      0.8852209    
   1193500   301.80821     -10499.778     -436.99491      50959.199      37.074406      0.8874261    
   1193600   299.8427      -10682.73      -85.547724      50939.139      37.06954       0.88777557   
   1193700   299.82245     -10385.562      606.01804      51186.205      37.129375      0.88349046   
   1193800   298.22233     -10577.427      249.06608      50958.288      37.074185      0.88744197   
   1193900   293.74093     -10015.74      -1000.7504      50892.749      37.058284      0.88858481   
   1194000   295.29846     -10046.974      304.19776      50778.077      37.03043       0.89059149   
   1194100   302.28486     -10234.147      105.31636      50681.8        37.007011      0.8922833    
   1194200   302.122       -10443.55       979.601        50438.915      36.9478        0.89658002   
   1194300   302.71783     -9939.7764      1024.9746      50698.113      37.010981      0.89199619   
   1194400   301.53128     -10399.263      1641.127       50485.946      36.95928       0.89574479   
   1194500   293.63224     -11081.348     -1975.9016      50578.324      36.981808      0.89410878   
   1194600   300.55594     -10462.582      1303.0373      50356.17       36.927584      0.89805328   
   1194700   300.407       -10436.526     -656.37914      50781.555      37.031275      0.8905305    
   1194800   305.03634     -10585.35      -1414.9156      50837.461      37.04486       0.88955117   
   1194900   307.21577     -9960.8268      90.648771      50842.938      37.04619       0.88945535   
   1195000   301.9365      -10635.392      121.26299      50848.81       37.047616      0.88935265   
   1195100   295.2437      -10489.223      2242.2222      50703.209      37.012221      0.89190653   
   1195200   300.06474     -10719.243      379.20989      50697.807      37.010907      0.89200158   
   1195300   302.21529     -10514.958      1076.728       50453.344      36.951323      0.8963236    
   1195400   303.58632     -10774.08      -60.852503      50547.48       36.974289      0.89465437   
   1195500   304.8237      -10809.461      397.18732      50428.98       36.945373      0.89675666   
   1195600   302.97559     -10583.253      44.930376      50484.931      36.959032      0.8957628    
   1195700   290.78242     -10205.799     -342.51638      50637.262      36.996168      0.8930681    
   1195800   300.08174     -10652.648     -1793.3995      50569.124      36.979566      0.89427145   
   1195900   296.73473     -10396.482      1534.5313      50012.211      36.843314      0.90422963   
   1196000   305.93909     -10251.083      484.36522      50047.696      36.852026      0.90358851   
   1196100   302.99497     -10756.826     -375.86598      50481.084      36.958093      0.89583107   
   1196200   295.62367     -10642.823      152.86707      50292.374      36.911983      0.89919247   
   1196300   296.25061     -10085.699      962.48934      50170.699      36.882191      0.9013732    
   1196400   296.10218     -10412.186      328.70436      50403.931      36.939255      0.89720231   
   1196500   303.12484     -10027.31       96.804027      50439.015      36.947824      0.89657825   
   1196600   302.49689     -10553.139     -1710.1397      50672.49       37.004745      0.89244724   
   1196700   303.15037     -10454.936     -849.20041      50913.429      37.063303      0.88822389   
   1196800   299.65152     -10671.819     -65.529501      51043.759      37.094901      0.88595598   
   1196900   298.37122     -10739.67       160.62895      50564.544      36.97845       0.89435245   
   1197000   295.0228      -10819.258      308.81589      50904.166      37.061055      0.88838552   
   1197100   303.05358     -10418.329      598.35604      50870.231      37.052817      0.88897815   
   1197200   302.72785     -10688.958      419.35581      50557.558      36.976747      0.89447603   
   1197300   301.48328     -10194.957      195.81448      50509.413      36.965005      0.89532864   
   1197400   305.51395     -11101.807     -1042.5645      50493.774      36.96119       0.89560594   
   1197500   305.02204     -10505.207     -20.108783      50567.274      36.979115      0.89430415   
   1197600   300.98276     -10389.794      1079.3575      50685.32       37.007868      0.89222133   
   1197700   299.35432     -10360.243     -38.576153      50759.242      37.02585       0.89092197   
   1197800   297.73156     -10721.506     -470.8139       50909.873      37.06244       0.88828593   
   1197900   298.275       -10702.623     -863.17127      50976.152      37.078517      0.88713097   
   1198000   302.47081     -10609.852     -500.18797      50840.203      37.045525      0.88950321   
   1198100   306.25055     -10579.128      293.92187      50676.903      37.005819      0.89236952   
   1198200   301.69043     -10463.667     -574.48858      50353.353      36.926895      0.89810353   
   1198300   294.27358     -10890.631      545.18708      50150.809      36.877317      0.90173069   
   1198400   296.12677     -10598.779     -333.65217      50043.53       36.851003      0.90366374   
   1198500   297.00415     -10449.679     -49.975947      50195.065      36.888161      0.90093565   
   1198600   306.83391     -10194.059      1147.5541      49806.644      36.792765      0.90796167   
   1198700   302.48944     -10010.676     -784.43085      49909.063      36.817967      0.90609842   
   1198800   299.03233     -10133.826      242.63039      50036.33       36.849236      0.90379377   
   1198900   298.66996     -10350.002     -723.78109      50043.674      36.851038      0.90366113   
   1199000   295.65752     -10214.537     -80.189256      50341.224      36.92393       0.8983199    
   1199100   299.56291     -11230.129      789.2031       50293.942      36.912367      0.89916442   
   1199200   289.90392     -10836.078     -466.46434      50257.596      36.903473      0.8998147    
   1199300   296.10909     -10132.503      519.10298      50187.037      36.886195      0.90107976   
   1199400   294.5801      -10203.466      193.50701      50464.622      36.954075      0.89612331   
   1199500   299.7988      -10683.435     -880.84415      50549.877      36.974874      0.89461193   
   1199600   305.2998      -10884.843      601.71317      50321.354      36.919072      0.89867461   
   1199700   302.71359     -10601.242      28.827614      50416.078      36.942222      0.89698615   
   1199800   300.53536     -10771.654     -641.69903      50520.397      36.967685      0.89513396   
   1199900   299.24203     -10770.528     -426.97766      50635.61       36.995765      0.89309725   
   1200000   297.39257     -10072.558      167.23569      50726.243      37.017825      0.89150153   
   1200026   304.45299     -10376.998      123.6817       50405.724      36.939693      0.89717039   
Loop time of 6328.59 on 8 procs for 1000000 steps with 3596 atoms

Performance: 13.652 ns/day, 1.758 hours/ns, 158.013 timesteps/s
67.8% CPU use with 1 MPI tasks x 8 OpenMP threads

MPI task timing breakdown:
Section |  min time  |  avg time  |  max time  |%varavg| %total
---------------------------------------------------------------
Pair    | 3485.4     | 3485.4     | 3485.4     |   0.0 | 55.07
Bond    | 1069.9     | 1069.9     | 1069.9     |   0.0 | 16.91
Neigh   | 429.51     | 429.51     | 429.51     |   0.0 |  6.79
Comm    | 95.482     | 95.482     | 95.482     |   0.0 |  1.51
Output  | 101.58     | 101.58     | 101.58     |   0.0 |  1.61
Modify  | 1129       | 1129       | 1129       |   0.0 | 17.84
Other   |            | 17.8       |            |       |  0.28

Nlocal:           3596 ave        3596 max        3596 min
Histogram: 1 0 0 0 0 0 0 0 0 0
Nghost:          10207 ave       10207 max       10207 min
Histogram: 1 0 0 0 0 0 0 0 0 0
Neighs:         986910 ave      986910 max      986910 min
Histogram: 1 0 0 0 0 0 0 0 0 0

Total # of neighbors = 986910
Ave neighs/atom = 274.44661
Ave special neighs/atom = 11.430478
Neighbor list builds = 43622
Dangerous builds = 0
unfix			1
#final
write_data		before_cross_linking_with_charge_dihedrals.data
System init for write_data ...
Generated 136 of 136 mixed pair_coeff terms from geometric mixing rule
Last active /omp style is dihedral_style harmonic/omp

#parameter
neighbor		2.0 bin
Total wall time: 1:59:16
