LAMMPS (15 Sep 2022)
OMP_NUM_THREADS environment is not set. Defaulting to 1 thread. (src/comm.cpp:98)
  using 1 OpenMP thread(s) per MPI task
Loaded 1 plugins from C:\Users\IIT\AppData\Local\LAMMPS 64-bit 15Sep2022\plugins
package omp 0
using multi-threaded neighbor list subroutines
package omp 4
set 4 OpenMP thread(s) per MPI task
using multi-threaded neighbor list subroutines
# Initialization
units			real
dimension		3
processors		* * *
boundary		p p p
atom_style		full
pair_style		lj/cut/coul/cut 10.0
bond_style		harmonic
angle_style 	harmonic
dihedral_style  harmonic
read_data		PVA_NP_H2O_INPUT_WITH_CHARGE.data
Reading data file ...
  orthogonal box = (-8.456496 2.851498 -0.849498) to (171.5435 182.8515 179.1505)
  1 by 1 by 1 MPI processor grid
  reading atoms ...
  6084 atoms
  reading velocities ...
  6084 velocities
  scanning bonds ...
  4 = max bonds/atom
  scanning angles ...
  6 = max angles/atom
  scanning dihedrals ...
  12 = max dihedrals/atom
  reading bonds ...
  6080 bonds
  reading angles ...
  11116 angles
  reading dihedrals ...
  17688 dihedrals
Finding 1-2 1-3 1-4 neighbors ...
  special bond factors lj:    0        0        0       
  special bond factors coul:  0        0        0       
     4 = max # of 1-2 neighbors
     7 = max # of 1-3 neighbors
    16 = max # of 1-4 neighbors
    20 = max # of special neighbors
  special bonds CPU = 0.006 seconds
  read_data CPU = 0.151 seconds

#output

thermo			100
thermo_style	custom step temp pe press vol lx density
#dump			1 all custom 100 before_cross_linking.lammpstrj id type x y z
timestep 1

#initial minimization
minimize                1.0e-5 1.0e-5 10000 10000
Switching to 'neigh_modify every 1 delay 0 check yes' setting during minimization
Generated 91 of 91 mixed pair_coeff terms from geometric mixing rule
Last active /omp style is dihedral_style harmonic/omp
Neighbor list info ...
  update: every = 1 steps, delay = 0 steps, check = yes
  max neighbors/atom: 2000, page size: 100000
  master list distance cutoff = 12
  ghost atom cutoff = 12
  binsize = 6, bins = 30 30 30
  1 neighbor lists, perpetual/occasional/extra = 1 0 0
  (1) pair lj/cut/coul/cut/omp, perpetual
      attributes: half, newton on, omp
      pair build: half/bin/newton/omp
      stencil: half/bin/3d
      bin: standard
Per MPI rank memory allocation (min/avg/max) = 17.59 | 17.59 | 17.59 Mbytes
   Step          Temp          PotEng         Press          Volume           Lx          Density    
         0   0              31000.81      -616.84885      5832000        180            0.011797478  
        40   0              12622.721     -29.544574      5832000        180            0.011797478  
Loop time of 0.420318 on 4 procs for 40 steps with 6084 atoms

237.9% CPU use with 1 MPI tasks x 4 OpenMP threads

Minimization stats:
  Stopping criterion = linesearch alpha is zero
  Energy initial, next-to-last, final = 
      31000.8100107309   12622.7210345778   12622.7210345778
  Force two-norm initial, final = 5485.568 215.46172
  Force max component initial, final = 1107.7932 36.123521
  Final line search alpha, max atom move = 1.5150629e-13 5.4729408e-12
  Iterations, force evaluations = 40 122

MPI task timing breakdown:
Section |  min time  |  avg time  |  max time  |%varavg| %total
---------------------------------------------------------------
Pair    | 0.25768    | 0.25768    | 0.25768    |   0.0 | 61.30
Bond    | 0.12966    | 0.12966    | 0.12966    |   0.0 | 30.85
Neigh   | 0.007251   | 0.007251   | 0.007251   |   0.0 |  1.73
Comm    | 0.000469   | 0.000469   | 0.000469   |   0.0 |  0.11
Output  | 0          | 0          | 0          |   0.0 |  0.00
Modify  | 0.010744   | 0.010744   | 0.010744   |   0.0 |  2.56
Other   |            | 0.01452    |            |       |  3.45

Nlocal:           6084 ave        6084 max        6084 min
Histogram: 1 0 0 0 0 0 0 0 0 0
Nghost:            122 ave         122 max         122 min
Histogram: 1 0 0 0 0 0 0 0 0 0
Neighs:         249368 ave      249368 max      249368 min
Histogram: 1 0 0 0 0 0 0 0 0 0

Total # of neighbors = 249368
Ave neighs/atom = 40.987508
Ave special neighs/atom = 11.467456
Neighbor list builds = 2
Dangerous builds = 0

#Intial compression from 0 to 1000 atm
fix                     1 all npt temp 300.0 300.0 100.0 iso 0.0 1000.0 1000.0
WARNING: Detected non-ASCII characters in input. Will try to continue by replacing with ASCII equivalents where known. (src/input.cpp:462)
#restart                         50000 initialcompression.restart
run                     50000
Generated 91 of 91 mixed pair_coeff terms from geometric mixing rule
Last active /omp style is dihedral_style harmonic/omp
Per MPI rank memory allocation (min/avg/max) = 16.46 | 16.46 | 16.46 Mbytes
   Step          Temp          PotEng         Press          Volume           Lx          Density    
        40   0              12622.721     -29.544574      5832000        180            0.011797478  
       100   21.603314      12234.633     -14.327704      5810090.2      179.77431      0.011841967  
       200   46.656117      11902.108      12.8843        5743126.3      179.08098      0.011980042  
       300   71.312613      11739.491      0.33183795     5708741.2      178.72286      0.012052201  
       400   89.205499      11607.984      9.853234       5666174.9      178.27755      0.012142741  
       500   107.35258      11726.896      7.5443726      5635815.4      177.95858      0.012208152  
       600   127.54231      12366.827     -0.85095295     5614504.7      177.73399      0.01225449   
       700   166.89156      12191.731     -5.4875326      5563631.1      177.19554      0.012366545  
       800   202.46761      12638.698      12.245901      5480876.3      176.31259      0.012553265  
       900   238.02909      13188.507      10.831588      5423758        175.69798      0.012685465  
      1000   266.28444      13701.203     -16.737748      5357317.9      174.97761      0.012842787  
      1100   298.49266      14140.402     -0.75887409     5245828        173.75528      0.013115736  
      1200   313.66427      14428.941      12.362393      5159429.3      172.79608      0.013335369  
      1300   315.36355      14461.416      11.939078      5092220.3      172.04249      0.013511374  
      1400   298.27514      14177.342      13.519787      5019640.3      171.2212       0.013706738  
      1500   292.84837      14107.083     -11.528168      4948696.8      170.41073      0.013903235  
      1600   294.66282      13645.031     -3.3871483      4870105.8      169.50381      0.014127597  
      1700   296.6217       13945.202      10.342229      4786191.3      168.52462      0.014375291  
      1800   297.02808      14433.524     -9.9098583      4709451.7      167.61908      0.014609534  
      1900   310.17202      14421.996      8.638029       4621572.2      166.56992      0.014887335  
      2000   296.39977      14526.547      4.9059161      4547466.2      165.67481      0.015129941  
      2100   300.68397      14087.65      -1.070239       4466132.1      164.68114      0.015405477  
      2200   293.70233      13840.266      1.7805112      4381279.7      163.63153      0.015703835  
      2300   298.41015      13880.247      30.879689      4303336.5      162.65538      0.015988267  
      2400   303.27727      14088.368     -25.03604       4236572.6      161.80982      0.016240225  
      2500   308.5001       14036.969      9.8590542      4158537.8      160.81019      0.016544972  
      2600   299.68866      14073.469     -10.177841      4086323.4      159.8739       0.016837359  
      2700   296.17621      13642.954     -3.5957451      4013027.5      158.91225      0.017144885  
      2800   296.79779      13606.404     -5.5420308      3938319.9      157.91995      0.017470113  
      2900   296.81545      13668.2        5.5958543      3863422.8      156.91245      0.017808792  
      3000   304.7131       13344.508     -27.660705      3799712.3      156.04514      0.018107395  
      3100   302.74262      13625.003      8.9250378      3727691.1      155.05293      0.018457241  
      3200   295.68441      13504.812      6.866638       3659430.8      154.10067      0.018801529  
      3300   296.81234      13527.279     -0.066203198    3595476.8      153.19767      0.019135958  
      3400   303.653        13566.061     -15.155953      3531400.1      152.28214      0.019483177  
      3500   307.38736      13268.601     -0.38635221     3468507.4      151.37269      0.019836456  
      3600   296.71028      13307.791     -8.1799131      3407029        150.47301      0.020194396  
      3700   295.13092      13302.199     -20.462461      3343607.7      149.53348      0.020577442  
      3800   300.05823      13570.341      6.334892       3280259.9      148.5831       0.02097483   
      3900   299.78503      13481.965     -11.613921      3222307.4      147.70289      0.021352058  
      4000   303.44228      13238.521     -17.263223      3156760.4      146.69451      0.021795412  
      4100   306.39479      13644.988      8.1093261      3100833.8      145.82304      0.022188514  
      4200   297.61801      13488.61      -21.559219      3049735.5      145.0176       0.022560283  
      4300   297.49479      13278.876      29.720811      2989357.5      144.05421      0.023015947  
      4400   296.63163      12972.276     -35.80447       2941425.5      143.28012      0.023391004  
      4500   305.46648      13230.986      5.0985886      2888835.7      142.42108      0.023816825  
      4600   304.36596      13401.278      19.292129      2834793.9      141.52739      0.024270863  
      4700   298.89041      13366.24      -14.920682      2784714.7      140.68903      0.02470734   
      4800   294.55963      13501.494      13.528486      2736281.7      139.86861      0.025144668  
      4900   300.8856       13315.113      49.488094      2685290.1      138.99433      0.025622145  
      5000   298.67752      13306.028     -5.6889006      2638144.7      138.17608      0.02608003   
      5100   304.28017      13273.175      19.618835      2590406.3      137.33755      0.026560657  
      5200   304.49098      12914.402      6.9171686      2544903.6      136.52864      0.02703556   
      5300   296.75541      13181.475     -35.410282      2497684.9      135.67897      0.027546667  
      5400   304.53944      12803.985      1.6156019      2451020.8      134.82869      0.028071118  
      5500   304.9024       13060.693     -36.736361      2408124.2      134.03749      0.028571157  
      5600   299.10884      12935.61      -12.763928      2363116.3      133.19718      0.029115323  
      5700   298.68246      13030.33      -12.412711      2323333.2      132.44549      0.029613873  
      5800   298.50698      12986.593     -46.218153      2279785.8      131.61276      0.030179544  
      5900   296.84751      13330.113     -18.602121      2241290.2      130.86777      0.030697897  
      6000   293.68226      13296.468      19.529517      2201460.7      130.08792      0.031253292  
      6100   303.58215      13226.673     -58.166732      2162193.4      129.30982      0.031820878  
      6200   306.34584      12987.896      6.3629898      2121718.5      128.49787      0.032427908  
      6300   306.49921      13012.298      9.5395042      2085637.3      127.7653       0.032988907  
      6400   287.22331      13205.895     -6.7528896      2050906.4      127.05213      0.033547554  
      6500   296.14229      13143.988     -29.666308      2014629.1      126.29855      0.034151643  
      6600   296.89501      13031.66       2.2433685      1976227.5      125.49092      0.03481527   
      6700   306.24741      13106.654      28.814895      1943411.4      124.79243      0.035403154  
      6800   309.34382      12961.693     -33.913769      1911139.2      124.09781      0.036000985  
      6900   301.0342       12524.32       7.0262646      1878170.2      123.38006      0.036632938  
      7000   294.36326      12883.133      18.613041      1847147        122.69696      0.037248197  
      7100   291.16965      12747.088      14.305098      1816864.3      122.02276      0.037869032  
      7200   300.07595      12800.381      0.61112532     1787133.3      121.3535       0.038499027  
      7300   289.43722      13481.172      14.451903      1758763.5      120.70793      0.039120038  
      7400   306.55777      12761.866      22.362181      1729172.3      120.02713      0.039789496  
      7500   300.88089      12986.662      1.2242975      1698219.2      119.30663      0.040514731  
      7600   300.89824      12766.215     -0.72667957     1669634.9      118.63345      0.041208347  
      7700   295.66179      12640.396     -5.8721296      1644411.4      118.03301      0.041840439  
      7800   299.81325      12713.406      5.4237394      1616496.2      117.36129      0.04256298   
      7900   303.51345      12786.393      11.149527      1588385        116.677        0.043316259  
      8000   299.68121      12623.465     -18.595021      1562298.6      116.03474      0.044039528  
      8100   302.58477      12863.683      41.852584      1535461.5      115.36648      0.04480926   
      8200   302.49131      12907.428      23.216067      1512462        114.78756      0.045490659  
      8300   298.94126      12481.601      34.536994      1488054.5      114.16674      0.046236811  
      8400   297.38106      12500.914     -19.533759      1463060.3      113.52393      0.047026697  
      8500   298.83264      12711.66       29.317083      1440704.2      112.94273      0.047756434  
      8600   298.70464      12615.632     -25.530243      1417622.4      112.33632      0.048534006  
      8700   301.19946      12395.237      78.62794       1393398.2      111.69277      0.049377769  
      8800   304.5804       12144.579      18.727606      1373725.5      111.16464      0.050084893  
      8900   299.39419      12679.403      29.95408       1350918.1      110.54599      0.05093047   
      9000   302.37035      12210.419      91.180681      1328986.8      109.94451      0.05177094   
      9100   299.06744      12253.447     -134.11479      1307730.8      109.3552       0.05261243   
      9200   299.02346      12387.212      35.781521      1285423.4      108.72984      0.053525472  
      9300   299.05637      12131.7       -65.119816      1267599.6      108.22494      0.054278096  
      9400   301.01675      12161.639     -1.9901196      1248112.5      107.66749      0.055125554  
      9500   302.07376      12254.816     -33.478227      1227464.4      107.07045      0.056052865  
      9600   300.93827      12049.599      52.883147      1206967.2      106.47112      0.057004774  
      9700   302.87752      12640.107      0.75290382     1188635.4      105.92933      0.057883932  
      9800   294.03104      12970.481      10.899588      1169884.5      105.36936      0.058811697  
      9900   293.76511      12587.496     -1.7662151      1153417.7      104.87264      0.059651325  
     10000   299.26643      12085.419      52.849976      1135803.4      104.33605      0.060576413  
     10100   302.05224      12307.844      28.431287      1118335.9      103.79842      0.061522565  
     10200   308.37232      12000.885     -50.738302      1101684.9      103.28069      0.062452424  
     10300   297.71072      12254.071      74.261257      1083014.6      102.69393      0.063529053  
     10400   299.52657      12104.607     -31.549977      1068106.6      102.22055      0.064415757  
     10500   298.81479      11834.864     -64.137443      1051871.1      101.69997      0.065410007  
     10600   296.97254      11538.161     -38.484159      1037230.2      101.22592      0.066333289  
     10700   294.03356      11380.268     -75.300124      1022415.8      100.74168      0.067294435  
     10800   300.35386      11421.444      27.87467       1006745.2      100.22434      0.068341913  
     10900   299.73125      11397.952      61.751943      992108.91      99.736269      0.069350142  
     11000   305.88552      10953.629     -5.4505081      976577.67      99.213079      0.070453069  
     11100   295.34467      11516.72      -0.73199212     963023.02      98.751922      0.071444703  
     11200   298.74911      11787.996      34.72279       948532.34      98.254107      0.07253616   
     11300   299.67256      11572.728      64.968529      935340.38      97.796481      0.073559204  
     11400   302.21909      11541.153      98.416657      922564.9       97.349183      0.074577836  
     11500   301.40708      11109.614     -37.703536      909470.49      96.886411      0.075651596  
     11600   296.83915      11003.064      39.757184      896513.87      96.424117      0.07674493   
     11700   298.74575      10826.145     -1.1991285      883484.67      95.954719      0.077876726  
     11800   300.74565      11011.866      6.0745279      871096.95      95.504133      0.078984198  
     11900   302.10898      11428.402     -202.6449       858968.31      95.058811      0.080099456  
     12000   304.86164      10936.076      65.580523      844629.77      94.52691       0.081459234  
     12100   295.39159      10967.08       105.28219      833351.32      94.10428       0.08256169   
     12200   304.22115      10951.808      68.461347      822440.22      93.691771      0.083657015  
     12300   295.95742      10883.486     -68.376145      811604.21      93.278474      0.084773949  
     12400   290.00869      10684.138      66.908395      800278.75      92.842558      0.085973661  
     12500   300.38377      10984.392      42.451031      789146.29      92.410043      0.087186488  
     12600   298.25373      11128.739     -55.496679      779309.58      92.024473      0.088286986  
     12700   307.35364      11304.75       38.924769      769165.34      91.623435      0.089451371  
     12800   301.41281      10894.26       64.350018      759325.01      91.231028      0.090610599  
     12900   297.36264      11188.924      78.743721      749125.07      90.820686      0.091844335  
     13000   292.63404      11097.985      26.260621      738291.43      90.38075       0.093192052  
     13100   293.36967      10819.459     -12.209298      728362.84      89.973772      0.094462389  
     13200   306.90909      10877.329      35.641256      718201.31      89.553397      0.095798898  
     13300   305.92852      11309.531      98.80649       708079.73      89.130714      0.097168286  
     13400   298.20796      11168.555     -16.154362      699163.17      88.755004      0.098407492  
     13500   295.18598      11004.168      129.25425      689023.29      88.323845      0.099855687  
     13600   301.47417      10612.023      4.7738853      679819.99      87.928833      0.10120752   
     13700   299.21385      10685.033      59.91251       670734.92      87.535384      0.10257837   
     13800   303.79546      10663.367      2.4931497      661526.42      87.132946      0.10400627   
     13900   299.49672      10978.746     -16.285907      653549.52      86.781303      0.10527572   
     14000   303.38444      10942.828     -0.86991755     646128.46      86.451584      0.10648485   
     14100   300.60153      10548.878     -24.248052      638153.72      86.094439      0.10781555   
     14200   301.88387      10583.421     -26.374188      630346.09      85.741884      0.10915098   
     14300   305.49183      10462.763      53.511886      622397.92      85.379979      0.11054487   
     14400   301.09651      10855.892     -3.6010304      615068.28      85.043497      0.1118622    
     14500   298.97436      10671.151     -125.33877      607308.51      84.684343      0.1132915    
     14600   308.26992      10656.851      52.082564      599072.98      84.299807      0.11484893   
     14700   300.37191      10706.406     -27.924216      590940.39      83.916602      0.1164295    
     14800   300.22286      10907.822     -97.793796      584199.37      83.596294      0.11777297   
     14900   296.51411      10892.216      181.98767      576673.05      83.235748      0.11931005   
     15000   298.79989      10878.691     -64.255843      569873.83      82.907325      0.12073356   
     15100   300.85079      10699.752     -8.7242826      562369.74      82.541809      0.12234459   
     15200   300.59081      10699.824      4.6313066      555967.15      82.227366      0.12375352   
     15300   303.18523      10464.93      -112.65358      548792.22      81.87211       0.12537148   
     15400   297.45096      10552.593     -56.871652      541864.88      81.526163      0.12697426   
     15500   298.54535      10347.749      101.53251      535063.92      81.183646      0.12858818   
     15600   297.04168      10328.211     -235.4372       528610.33      80.855931      0.13015806   
     15700   299.84823      10219.852     -94.674242      522231.77      80.529394      0.13174781   
     15800   301.91498      10358.438      6.8291828      516463.78      80.231816      0.1332192    
     15900   305.47626      10453.477     -36.388169      509983.27      79.894824      0.13491206   
     16000   301.69312      10431.781     -29.814491      503489.44      79.554263      0.13665211   
     16100   294.26382      10642.969      82.995396      497507.93      79.237969      0.13829507   
     16200   296.2857       10241.497      124.31038      491951.79      78.941889      0.13985698   
     16300   300.5869       10379.755     -113.82651      486326.85      78.639863      0.1414746    
     16400   304.48623      10347.921     -60.147041      480390.59      78.318585      0.14322282   
     16500   306.97108      10194.809      118.71856      475386.67      78.045704      0.14473038   
     16600   300.36377      10483.157     -196.41278      470092.64      77.754909      0.14636029   
     16700   297.51041      10041.496     -43.552514      463726.38      77.402312      0.14836959   
     16800   295.3719       10207.988      7.6942278      458378.56      77.103619      0.1501006    
     16900   301.90801      10595.36      -44.91349       452742.55      76.786305      0.15196914   
     17000   307.50841      10235.264     -21.669999      447310.93      76.477997      0.15381447   
     17100   301.43624      9850.4141     -264.4736       442327.38      76.192918      0.15554745   
     17200   298.37176      10064.465      78.063126      436901.89      75.880114      0.15747905   
     17300   298.39948      10136.606      126.8815       431642.9       75.574428      0.15939772   
     17400   296.45439      10120.779      204.92936      427958.13      75.358763      0.16077015   
     17500   305.66945      10318.904     -69.794914      423358.49      75.087808      0.16251686   
     17600   302.82028      10165.936      6.137433       418283.07      74.786538      0.16448883   
     17700   303.82741      10162.143      160.56704      414213.13      74.543187      0.16610505   
     17800   300.1136       10469.869     -7.0854209      409759.34      74.27505       0.1679105    
     17900   299.57948      10559.65       60.101393      405263.26      74.00239       0.16977333   
     18000   305.09669      10015.895      187.14683      400809.63      73.730308      0.17165978   
     18100   301.03605      10079.856     -298.13021      396805.12      73.483938      0.17339215   
     18200   298.4601       10265.49      -131.74341      391424.15      73.15026       0.1757758    
     18300   302.9515       10192.673     -127.11633      386758.62      72.858462      0.17789621   
     18400   297.08357      10015.659      114.68694      382601.71      72.596492      0.17982903   
     18500   300.7502       10183.085      96.750057      378611.22      72.343219      0.18172439   
     18600   298.53259      10147.07      -98.478106      374602.8       72.087009      0.18366893   
     18700   297.89942      9955.5566      27.190456      370325.12      71.811565      0.18579051   
     18800   304.46973      10107.759     -81.886136      366517.61      71.564605      0.18772057   
     18900   303.10517      10050.515      60.504021      362652.57      71.312159      0.18972123   
     19000   303.58981      9734.8268     -135.50924      358186.81      71.018233      0.19208662   
     19100   295.26335      10017.667     -88.580238      354205.72      70.75414       0.19424557   
     19200   302.26328      9962.8037      286.72506      350214.23      70.487363      0.19645945   
     19300   298.2218       9300.9793      79.875256      347158.18      70.281734      0.19818889   
     19400   298.56881      9253.9447     -201.9113       343720.72      70.048994      0.20017092   
     19500   300.10824      9793.9125      31.0735        340288.51      69.815057      0.20218988   
     19600   297.54303      9740.733      -15.090972      336713.79      69.569727      0.20433643   
     19700   300.20779      10472.523      56.633442      332702.55      69.292364      0.20680002   
     19800   302.10786      10611.305     -86.353516      329346.71      69.058601      0.20890718   
     19900   297.36329      10656.084      304.83751      325516.26      68.789829      0.21136546   
     20000   296.34913      10233.979     -66.190362      322542.55      68.579714      0.21331416   
     20100   298.30148      10094.476      77.370341      318676.25      68.304591      0.21590217   
     20200   304.59255      10244.422      126.51309      315497.46      68.07672       0.21807749   
     20300   302.77405      10055.53      -304.22028      312255.81      67.84276       0.22034144   
     20400   298.58301      9850.9443      57.880131      309168.3       67.618415      0.22254187   
     20500   300.0374       9814.2249      52.230436      306105.71      67.394399      0.22476841   
     20600   297.0151       9834.3441      202.44393      302669.75      67.141289      0.22732002   
     20700   302.23027      9761.4582      61.521979      300394.9       66.972656      0.22904148   
     20800   297.07592      10033.433      57.875708      297575.64      66.76248       0.23121144   
     20900   294.88645      9527.917      -401.63813      294319.85      66.518102      0.23376913   
     21000   301.48185      9372.0047     -42.940037      290396.97      66.221248      0.23692703   
     21100   306.14789      9569.7787      227.32807      287550.42      66.004164      0.23927245   
     21200   309.46375      9319.6473     -269.76016      285089.19      65.815308      0.24133813   
     21300   301.06834      9684.8424      184.17913      282243.95      65.595626      0.24377102   
     21400   293.06756      9313.7294     -263.31537      279610.67      65.39099       0.24606677   
     21500   296.28163      9466.9785     -180.45982      276630.71      65.157858      0.24871748   
     21600   303.46954      8902.0177     -140.00085      273641.61      64.922322      0.25143433   
     21700   302.66603      8661.9106     -41.913817      271006.39      64.713245      0.25387923   
     21800   306.69151      9176.7182     -10.289403      267936.38      64.467955      0.25678817   
     21900   297.15907      9371.0403     -42.631897      264783.86      64.214116      0.25984549   
     22000   302.03792      9399.886      -134.59813      262014.26      63.98944       0.26259217   
     22100   298.5869       9387.6695      253.32068      259513.58      63.785216      0.26512252   
     22200   300.03464      8970.595       64.482831      257357.65      63.608091      0.2673435    
     22300   303.58542      9443.5369     -173.13468      254921.97      63.406788      0.26989786   
     22400   306.41348      9350.3463      173.71335      252261.25      63.185416      0.2727446    
     22500   301.01113      9567.0277      440.41128      250450.55      63.033873      0.27471649   
     22600   301.23992      9082.6547     -239.81069      248232.72      62.847259      0.27717093   
     22700   298.55809      9489.794       455.76259      245583.27      62.622864      0.28016116   
     22800   300.11348      9115.2311     -100.36927      243349.02      62.432377      0.28273339   
     22900   307.68941      9316.1598      80.55886       240901.82      62.222391      0.28560553   
     23000   303.86839      9471.6085      444.24501      238419.79      62.007958      0.28857879   
     23100   304.64093      9706.8323      39.840068      236394.25      61.831859      0.29105147   
     23200   301.22257      9447.6034      202.21332      234558.85      61.671419      0.29332891   
     23300   298.84534      9435.7246      347.8762       232592.74      61.498622      0.29580843   
     23400   302.75499      9238.6697      32.328935      230903.15      61.349348      0.29797295   
     23500   300.60114      9051.3987      164.07175      228490.8       61.134952      0.30111888   
     23600   305.20238      9188.2707     -108.10469      225827.96      60.896533      0.30466951   
     23700   300.2179       8730.229      -137.2593       223364.96      60.674334      0.30802903   
     23800   293.51466      9242.7018     -297.05773      221293.51      60.486189      0.31091239   
     23900   295.93853      9809.9627      261.70785      218983.23      60.274963      0.31419252   
     24000   299.82717      9534.119      -209.04075      217322.22      60.122179      0.31659392   
     24100   302.67156      9065.8163      28.636314      215496.92      59.953382      0.31927554   
     24200   299.3439       8935.1015     -86.402768      213734.7       59.789513      0.32190792   
     24300   299.85679      8951.9828      100.52323      211804.43      59.608979      0.32484161   
     24400   296.95908      8696.8911     -310.50669      209754         59.416001      0.32801708   
     24500   303.57441      8806.651      -171.44324      207728.98      59.224177      0.3312147    
     24600   302.93101      8976.2979      587.30693      205786.21      59.038968      0.33434162   
     24700   298.1016       8423.7334     -292.30963      204213.91      58.888222      0.3369158    
     24800   299.92926      8453.9355     -492.30335      202030         58.677548      0.34055781   
     24900   299.95142      8512.0929      199.49352      199859.78      58.466685      0.34425583   
     25000   298.81329      8898.2192      6.377149       197996.44      58.284418      0.34749561   
     25100   298.62446      8723.2069     -223.71012      196487.47      58.135974      0.35016429   
     25200   304.89326      8377.3687      212.16115      194718.83      57.961015      0.35334484   
     25300   301.51157      8524.2429     -91.669079      193024.94      57.792455      0.35644562   
     25400   294.04995      8652.9554      132.0343       191139.66      57.603685      0.35996138   
     25500   290.93854      9003.5039      395.20607      189095.5       57.3976        0.36385262   
     25600   302.54822      8998.0503     -361.26614      187628.75      57.24881       0.36669697   
     25700   306.56059      8671.423       290.58927      185971.53      57.079762      0.36996466   
     25800   297.82097      9026.6498     -304.62971      184295.12      56.907732      0.37332998   
     25900   296.04098      8749.247       292.80249      182643.21      56.737193      0.37670655   
     26000   300.79287      8808.3203      117.10253      181451.66      56.613541      0.37918029   
     26100   302.67399      9105.8778     -185.78025      180115.2       56.474204      0.38199382   
     26200   301.75405      8828.6165     -41.649391      178623.34      56.31785       0.38518424   
     26300   304.99941      8988.8272      272.28357      177033.78      56.150296      0.38864274   
     26400   296.82924      9257.6004     -11.105316      175415.47      55.978677      0.3922282    
     26500   296.06111      8700.3644      600.24123      174131.08      55.841718      0.39512126   
     26600   299.04233      8685.3718     -13.648388      172948.26      55.714992      0.39782356   
     26700   300.28937      8980.1352     -44.152146      171455.7       55.554252      0.40128672   
     26800   299.61712      9033.6246      234.64677      170068.29      55.403999      0.4045604    
     26900   305.5772       8392.0498     -171.88612      168558.72      55.239585      0.40818353   
     27000   297.56445      8788.9494      131.8895       166997.33      55.068491      0.41199997   
     27100   300.67387      8510.5449     -3.2761096      165533.8       54.907149      0.41564257   
     27200   304.47448      8691.0316      86.391366      163977.28      54.734509      0.41958796   
     27300   297.41376      8385.6752      490.54038      162770.36      54.599891      0.42269915   
     27400   295.51706      8478.3277      372.8541       161208.36      54.424676      0.42679483   
     27500   302.3135       8564.887      -96.319566      159729.91      54.257788      0.43074521   
     27600   300.88104      9094.704       22.431064      158441.17      54.111472      0.43424883   
     27700   302.48172      8905.7131     -4.9785692      157020.53      53.949259      0.43817769   
     27800   301.76455      8416.3023      120.72412      155724.35      53.800401      0.44182489   
     27900   296.62461      8643.6155     -77.146869      154239.71      53.62888       0.4460777    
     28000   295.18166      8472.284       307.77742      152894.7       53.472539      0.45000183   
     28100   295.35609      8298.1885     -0.18440781     151625.28      53.324142      0.45376927   
     28200   304.20034      8275.0428     -223.37809      150278.35      53.165774      0.45783637   
     28300   303.62738      8152.3188     -574.00795      149154.58      53.032919      0.46128583   
     28400   301.191        8171.3006      66.31635       147786.65      52.870296      0.46555553   
     28500   300.42         7901.9707     -275.64858      146818.46      52.754586      0.46862565   
     28600   296.75103      7666.2966     -309.65172      145544.2       52.601521      0.47272852   
     28700   298.53143      8017.8692     -126.36677      144221.56      52.441696      0.47706386   
     28800   300.73062      7925.7707     -449.07798      142903.93      52.281502      0.48146257   
     28900   303.77773      7804.861       85.895448      141580.67      52.11963       0.48596247   
     29000   299.19933      8100.337      -472.94766      140419.17      51.976712      0.4899822    
     29100   297.60682      8494.3762     -53.313818      139259.83      51.833271      0.49406131   
     29200   299.33396      8406.1611     -377.33578      138277.48      51.711105      0.49757121   
     29300   298.73607      8685.1012      318.15685      137264.62      51.584538      0.50124272   
     29400   300.22707      8355.3433     -641.05826      136388.33      51.474532      0.50446319   
     29500   299.44488      8442.2534     -335.04403      135194.32      51.32388       0.50891852   
     29600   301.77585      8402.3448     -17.81499       134240.59      51.202907      0.51253421   
     29700   299.93712      8608.5041     -602.28294      133323.54      51.086045      0.5160596    
     29800   295.31652      8114.166      -51.467691      132132.27      50.933435      0.52071228   
     29900   305.3559       8149.0592     -287.51853      131219.22      50.815845      0.52433547   
     30000   296.50902      8345.9053     -487.85828      130205.28      50.68462       0.52841863   
     30100   305.65029      7772.0789     -156.74042      129034.61      50.532261      0.53321273   
     30200   303.15181      7892.4532     -569.5531       128028.1       50.400529      0.53740465   
     30300   299.28415      7885.0447      591.99272      126785.65      50.236962      0.54267097   
     30400   303.58548      7976.9006      183.68971      125864.16      50.114956      0.54664406   
     30500   298.92684      8060.9332     -405.34075      124898.35      49.986444      0.5508711    
     30600   298.71446      7834.5009      148.00805      123935.99      49.857727      0.55514863   
     30700   299.92686      7288.6042     -193.51952      123111.78      49.746959      0.55886523   
     30800   302.05042      8041.7842     -31.517847      122379.47      49.648125      0.56220946   
     30900   300.1035       7768.6221     -584.7117       121621.14      49.545364      0.56571492   
     31000   301.83458      7744.1978     -55.118431      120488.6       49.391095      0.5710324    
     31100   298.01411      7617.0391     -74.870297      119366.9       49.237346      0.57639844   
     31200   300.52305      7957.3701     -486.95044      118542.48      49.12373       0.58040708   
     31300   301.66315      7921.2364     -83.785157      117696.47      49.006589      0.58457909   
     31400   297.922        6970.9496      273.20178      116908.08      48.896921      0.58852127   
     31500   299.74896      7259.1888     -89.056853      115977.76      48.766873      0.59324211   
     31600   294.89636      7520.434      -59.466202      114906.98      48.616327      0.59877034   
     31700   295.37317      7699.3026      393.75309      114114.67      48.504329      0.60292766   
     31800   300.02651      7568.1481     -614.78117      113349.09      48.395615      0.60699996   
     31900   302.86574      7413.6719     -186.6556       112596.21      48.288227      0.61105869   
     32000   299.36845      7504.7892     -801.36276      111945.86      48.195078      0.61460863   
     32100   298.81754      7845.3775     -608.86564      111357.67      48.110519      0.61785502   
     32200   295.48663      8152.7953     -489.63648      110575.22      47.997573      0.62222703   
     32300   297.94768      7341.9324     -79.169295      109866.93      47.894869      0.62623844   
     32400   296.40023      7551.4601     -208.02234      109009.98      47.77002       0.6311614    
     32500   303.20607      7639.1155      75.863657      108062.37      47.631197      0.63669615   
     32600   303.67989      7776.4342      409.50659      107262.01      47.513313      0.64144698   
     32700   297.94781      7972.8776     -654.0596       106654.55      47.423448      0.64510042   
     32800   300.07203      7595.4099      352.02477      105957.34      47.319885      0.64934524   
     32900   297.63232      7770.1728      53.541944      105151.33      47.199594      0.6543226    
     33000   299.11894      7985.0402      976.76717      104242.5       47.063217      0.66002725   
     33100   300.18118      7485.6846      765.17794      103524.8       46.95496       0.66460299   
     33200   298.95685      7772.2571      203.00125      102845.24      46.851993      0.66899443   
     33300   295.36776      7582.9524      411.71782      102046.4       46.730371      0.67423146   
     33400   295.4865       7561.154      -430.00859      101429.7       46.636044      0.67833087   
     33500   298.82257      7713.9397      114.54841      100695.55      46.523256      0.68327638   
     33600   300.49707      7357.1934     -493.98622      100123.04      46.434917      0.68718344   
     33700   302.33953      7395.441      -79.004445      99546.287      46.345584      0.69116484   
     33800   302.90886      7551.5832      473.40887      99022.838      46.264207      0.69481844   
     33900   298.02442      7762.9085     -404.24225      98504.608      46.183359      0.69847386   
     34000   296.65107      7397.0561     -215.68138      97794.066      46.072046      0.70354876   
     34100   301.34249      7719.3664      791.65929      97177.624      45.975038      0.70801169   
     34200   298.3855       7634.1606      100.68401      96824.031      45.919208      0.71059729   
     34300   300.938        7848.899      -202.96578      96396.355      45.851499      0.71374995   
     34400   300.85954      6988.65        444.78868      95760.726      45.750496      0.71848759   
     34500   297.34881      7047.1701      565.92454      95146.825      45.652521      0.72312338   
     34600   302.22423      7162.4776     -33.624068      94637.328      45.570888      0.72701645   
     34700   301.74714      7477.8506      674.07834      93951.747      45.460578      0.7323216    
     34800   303.85467      7070.6831      425.39925      93511.493      45.389458      0.73576939   
     34900   298.83827      7303.1814      83.258421      93185.361      45.33663       0.73834444   
     35000   295.18459      7418.1315     -137.75171      92789.117      45.272278      0.74149745   
     35100   300.44061      7435.0889      639.80905      92313.168      45.194739      0.74532047   
     35200   304.00854      7157.9114      346.25676      91827.734      45.11538       0.7492605    
     35300   304.20462      7537.4858      165.62761      91272.429      45.024255      0.75381903   
     35400   306.77724      7703.1936     -465.53007      90859.659      44.95628       0.75724358   
     35500   299.98919      7509.2056     -139.8665       90432.997      44.885801      0.76081625   
     35600   297.86138      8063.2285      1349.93        89952.3        44.806129      0.76488199   
     35700   304.4506       7238.5513     -934.89445      89601.247      44.747765      0.76787876   
     35800   306.31445      7309.3684      788.40228      89078.317      44.660543      0.77238655   
     35900   294.67029      7653.6895      134.91459      88750.488      44.605689      0.77523961   
     36000   298.72634      7340.0113     -535.91695      88507.986      44.565025      0.77736368   
     36100   298.78345      7771.9323     -365.43919      88102.963      44.496943      0.78093735   
     36200   296.81409      7339.3955     -802.86576      87893.326      44.461622      0.78279998   
     36300   299.89321      7688.2047     -495.08882      87630.919      44.417331      0.78514404   
     36400   299.27344      7321.8596     -473.09099      87143.209      44.334776      0.78953822   
     36500   305.30454      8067.1337      153.7748       86524.778      44.22965       0.7951814    
     36600   308.70761      6956.7982     -673.55985      86197.154      44.173754      0.79820377   
     36700   297.39874      7887.4035      816.07132      85609.392      44.073121      0.80368395   
     36800   301.45098      7308.8872      168.30539      85240.952      44.009804      0.80715773   
     36900   300.93307      7155.2576     -593.93037      84974.378      43.963878      0.80968988   
     37000   298.13459      7526.2079      129.64677      84502.628      43.88237       0.81421011   
     37100   300.44607      7173.6694      529.74114      84129.494      43.817685      0.81782132   
     37200   303.26481      7077.3713     -273.79989      83972.658      43.790439      0.81934877   
     37300   307.46093      7508.606       1750.0583      83709.246      43.744603      0.82192705   
     37400   303.79684      7735.002       1502.9813      83465.014      43.702018      0.82433215   
     37500   298.03707      7718.9824      273.9254       83131.803      43.643784      0.82763625   
     37600   298.64501      7389.9258      613.83745      82870.268      43.597968      0.83024824   
     37700   304.0452       7691.8974     -129.21328      82705.887      43.569122      0.83189838   
     37800   305.15964      7260.4876      352.53283      82444.082      43.523101      0.83454012   
     37900   295.24708      6925.9118      1554.9038      82259.507      43.490597      0.83641267   
     38000   301.53606      6857.9454      138.33006      82115.184      43.465147      0.83788272   
     38100   297.00547      7408.977       508.9582       81787.183      43.407198      0.84124298   
     38200   299.1444       7775.0286      967.4331       81653.816      43.383591      0.84261701   
     38300   300.40569      7119.0214      54.952756      81750.322      43.400676      0.8416223    
     38400   301.83457      6977.8046      874.12586      81511.735      43.358413      0.84408575   
     38500   301.75903      7278.5689      123.51456      81265.268      43.314668      0.84664575   
     38600   299.65169      7289.0098      1828.5753      81008.483      43.268998      0.84932949   
     38700   299.2229       7196.0598      1092.7016      80808.978      43.233448      0.85142636   
     38800   300.67943      7039.38        294.38774      80727.42       43.218898      0.85228654   
     38900   304.69712      6952.8798      282.9895       80511.427      43.180318      0.85457303   
     39000   301.96551      7460.2537      588.94141      80161.044      43.117588      0.85830835   
     39100   303.7608       7309.6638      435.04591      79901.521      43.071006      0.86109617   
     39200   299.95837      6538.129       1611.8293      79574.647      43.012192      0.86463336   
     39300   298.637        7901.8325      1890.5522      79394.917      42.979784      0.86659067   
     39400   304.30898      7519.9676      956.49294      79288.037      42.96049       0.86775883   
     39500   303.97025      7761.3927      1068.5238      79119.736      42.930071      0.86960469   
     39600   297.04751      8053.0927     -229.84198      79028.326      42.913532      0.87061055   
     39700   295.74693      7982.1828      784.53403      79007.346      42.909734      0.87084173   
     39800   300.55869      7641.5925      156.97351      79076.51       42.922252      0.87008005   
     39900   301.1208       7668.0888      1194.2055      78970.736      42.903105      0.87124544   
     40000   302.92132      7796.7995      1022.2623      78912.281      42.892517      0.87189082   
     40100   300.3051       7569.812       1301.5209      78594.631      42.834887      0.87541468   
     40200   300.50098      6778.5657     -389.11903      78244.914      42.77126       0.87932736   
     40300   305.56425      6993.9707      435.53801      77879.99       42.704663      0.88344765   
     40400   298.59111      7531.7229      1290.4635      77584.266      42.650542      0.88681504   
     40500   299.61387      7412.7163      1822.2463      77444.292      42.624877      0.88841788   
     40600   299.25911      7515.0792      1599.443       77513.532      42.637576      0.88762429   
     40700   298.60222      7304.9622      518.64518      77427.945      42.621878      0.88860544   
     40800   303.53439      7589.9387      204.79667      77298.081      42.598036      0.89009834   
     40900   299.74732      7538.4825      1032.0624      77064.457      42.555076      0.89279672   
     41000   301.72566      6980.8751      329.50942      76766.888      42.500233      0.89625743   
     41100   300.96127      7393.3603      611.05987      76575.794      42.464939      0.89849403   
     41200   299.68196      7623.8418      651.01175      76462.032      42.4439        0.89983084   
     41300   296.37906      7339.0645      239.96665      76361.55       42.425299      0.9010149    
     41400   302.07706      7051.099       1301.3424      76005.545      42.359266      0.90523519   
     41500   301.09271      6973.8937      661.2358       75678.318      42.298389      0.90914935   
     41600   302.41048      7391.0343      629.59717      75461.287      42.257915      0.91176412   
     41700   300.92176      7108.3942      1807.0503      75418.552      42.249937      0.91228076   
     41800   302.85087      7050.5991      759.595        75446.407      42.255138      0.91194394   
     41900   298.21143      6867.0632     -335.48276      75472.742      42.260054      0.91162573   
     42000   295.2808       7108.6417     -227.04499      75409.715      42.248287      0.91238766   
     42100   300.32962      6833.9051      689.48517      75353.163      42.237723      0.91307241   
     42200   298.93981      7277.994      -892.11403      75368.714      42.240628      0.91288401   
     42300   306.23928      7117.9189      310.84573      75206.612      42.210323      0.91485166   
     42400   297.6534       6580.4687      23.832736      74986.861      42.169171      0.91753266   
     42500   301.8426       6794.3313      645.6933       74637.995      42.103673      0.9218213    
     42600   301.26495      6620.0525     -466.06113      74314.746      42.042803      0.92583097   
     42700   295.98627      6767.7275      1066.1038      74035.072      41.989996      0.92932838   
     42800   300.03729      6496.652       1056.994       73853.577      41.955656      0.93161221   
     42900   300.20739      6946.8302     -673.7881       73751.528      41.936322      0.93290127   
     43000   297.96094      7273.4412      1360.6755      73573.407      41.902534      0.93515982   
     43100   299.72214      6757.449       1051.1094      73508.81       41.890267      0.9359816    
     43200   299.29097      6778.0825      899.18096      73376.988      41.865212      0.93766309   
     43300   302.28818      6928.5097      1155.2597      73255.085      41.842015      0.93922345   
     43400   301.27295      7031.4913      1754.2063      73220.533      41.835436      0.93966667   
     43500   296.7471       6945.5054      765.7484       73221.04       41.835532      0.93966015   
     43600   301.08932      6837.9245      148.27592      73120.437      41.816363      0.94095299   
     43700   301.21924      6783.7333      263.99994      73032.29       41.799553      0.94208868   
     43800   295.92802      7118.6474      1235.3944      73005.981      41.794533      0.94242818   
     43900   300.27185      6953.8828      756.78084      72986.3        41.790777      0.94268231   
     44000   298.28928      7598.0097      1745.7091      72995.592      41.792551      0.9425623    
     44100   297.73545      7977.0774      1270.1196      72995.934      41.792616      0.9425579    
     44200   300.09335      7100.663       959.0884       72918.531      41.777839      0.94355842   
     44300   300.5902       6723.4207      1398.5482      72627.457      41.722176      0.94733998   
     44400   303.36597      7135.6605      70.754173      72356.351      41.670197      0.95088949   
     44500   299.97166      7632.0967      1871.3605      72135.392      41.627737      0.95380218   
     44600   299.40841      7428.8426      1245.9399      72034.889      41.608395      0.95513292   
     44700   296.17306      6803.5342      1312.8664      72055.654      41.612393      0.95485767   
     44800   304.37788      6930.4236      898.00175      72011.509      41.603893      0.95544302   
     44900   300.75722      7237.9677      1576.2445      71861.894      41.57506       0.95743223   
     45000   305.65462      6909.6321      2499.0352      71771.982      41.557714      0.95863165   
     45100   298.24922      7181.5145      144.45698      71772.892      41.557889      0.9586195    
     45200   299.39941      7151.545       1448.4109      71648.453      41.533858      0.96028443   
     45300   298.74403      7094.6431      1624.6454      71711.271      41.545993      0.95944323   
     45400   301.86594      7286.2333      1545.3736      71810.685      41.565182      0.958115     
     45500   305.85097      7003.5453      1375.8691      71862.872      41.575249      0.9574192    
     45600   301.05289      7204.7313      1394.0093      71849.382      41.572647      0.95759897   
     45700   300.45637      7135.249      -352.98638      71850.782      41.572917      0.9575803    
     45800   297.38177      7499.3569      556.76146      71658.524      41.535804      0.96014947   
     45900   298.94996      6864.3759      815.12959      71629.965      41.530285      0.96053229   
     46000   297.06947      7225.0479      374.43243      71693.871      41.542632      0.95967609   
     46100   297.22125      6917.5939     -51.688487      71743.767      41.552267      0.95900866   
     46200   302.09583      7167.8772      546.11872      71693.872      41.542632      0.95967608   
     46300   303.00289      7405.4813      11.346605      71580.903      41.520801      0.96119064   
     46400   302.50486      7572.1397      2489.0764      71498.186      41.504801      0.96230265   
     46500   298.35891      6913.0153      860.83772      71597.197      41.523951      0.96097189   
     46600   298.83679      6894.4692      522.58712      71504.993      41.506119      0.96221105   
     46700   297.73868      6724.975       713.65883      71427.227      41.491066      0.96325864   
     46800   298.75898      7056.1148      1431.1381      71398.879      41.485577      0.96364109   
     46900   299.13427      7246.2473      364.28123      71304.072      41.467206      0.96492237   
     47000   303.33262      6696.0185      1858.4516      71232.383      41.453305      0.96589347   
     47100   294.6791       6973.7212      523.97318      71413.209      41.488352      0.96344772   
     47200   299.39704      7087.5796      1378.8882      71511.079      41.507296      0.96212915   
     47300   299.90139      7114.2038      129.25746      71526.872      41.510351      0.96191672   
     47400   305.32501      7152.7237      1189.7473      71310.791      41.468509      0.96483145   
     47500   305.44748      7602.1064      2313.752       70977.933      41.403887      0.96935612   
     47600   298.14082      7278.0482      358.10221      70761.103      41.361683      0.97232648   
     47700   298.42664      7203.3461      1451.1827      70484.976      41.307811      0.97613559   
     47800   299.15481      7699.6664      1290.2484      70227.51       41.257454      0.97971427   
     47900   299.55487      7147.182       877.59755      70074.22       41.227414      0.98185743   
     48000   304.03429      6964.5008      956.08394      70027.8        41.218308      0.98250829   
     48100   303.28176      6780.7513      1117.4282      70091.978      41.230896      0.98160868   
     48200   296.27017      7152.9561      1097.457       70068.557      41.226303      0.9819368    
     48300   294.02197      6791.9402      448.78736      69876.481      41.188598      0.98463593   
     48400   299.44282      7233.37        1249.5169      69815.558      41.176624      0.98549515   
     48500   304.44026      7319.624       1235.9054      69945.08       41.202072      0.98367025   
     48600   298.46264      7338.093       98.98746       70185.871      41.249298      0.9802955    
     48700   301.25692      6510.8979      1525.1771      70269.483      41.265672      0.97912907   
     48800   302.73272      7379.7307      412.39583      70303.242      41.272279      0.9786589    
     48900   307.15576      7526.2329      1205.1215      70278.283      41.267394      0.97900648   
     49000   300.13424      7547.0693      1356.3599      70355.858      41.282573      0.97792702   
     49100   300.94939      7312.9916      504.34127      70395.476      41.29032       0.97737665   
     49200   299.95169      7310.342       267.75941      70411.381      41.29343       0.97715586   
     49300   302.45855      7002.9177      1887.8237      70152.494      41.242759      0.9807619    
     49400   297.96424      7543.8839      1739.8342      70085.735      41.229672      0.98169611   
     49500   303.31818      7504.718       1177.1596      70191.166      41.250335      0.98022156   
     49600   300.90898      7232.5926      1474.8072      70286.968      41.269094      0.9788855    
     49700   303.33534      7223.062       81.535587      70370.939      41.285522      0.97771743   
     49800   300.88702      7331.6021      1475.9795      70138.839      41.240082      0.98095285   
     49900   300.1219       7054.7101      394.27643      69997.454      41.212353      0.98293424   
     50000   301.36349      7516.1734      1059.8752      69741.954      41.162149      0.98653522   
     50040   301.37962      7388.3669      633.6541       69599.227      41.13405       0.98855831   
Loop time of 351.371 on 4 procs for 50000 steps with 6084 atoms

Performance: 12.295 ns/day, 1.952 hours/ns, 142.300 timesteps/s
264.8% CPU use with 1 MPI tasks x 4 OpenMP threads

MPI task timing breakdown:
Section |  min time  |  avg time  |  max time  |%varavg| %total
---------------------------------------------------------------
Pair    | 207.32     | 207.32     | 207.32     |   0.0 | 59.00
Bond    | 58.627     | 58.627     | 58.627     |   0.0 | 16.69
Neigh   | 36.625     | 36.625     | 36.625     |   0.0 | 10.42
Comm    | 2.9751     | 2.9751     | 2.9751     |   0.0 |  0.85
Output  | 0.13853    | 0.13853    | 0.13853    |   0.0 |  0.04
Modify  | 44.734     | 44.734     | 44.734     |   0.0 | 12.73
Other   |            | 0.9469     |            |       |  0.27

Nlocal:           6084 ave        6084 max        6084 min
Histogram: 1 0 0 0 0 0 0 0 0 0
Nghost:          15637 ave       15637 max       15637 min
Histogram: 1 0 0 0 0 0 0 0 0 0
Neighs:    2.04267e+06 ave 2.04267e+06 max 2.04267e+06 min
Histogram: 1 0 0 0 0 0 0 0 0 0

Total # of neighbors = 2042671
Ave neighs/atom = 335.74474
Ave special neighs/atom = 11.467456
Neighbor list builds = 3350
Dangerous builds = 707
unfix             1

#second minimization
minimize                 1.0e-5 1.0e-5 10000 10000
Switching to 'neigh_modify every 1 delay 0 check yes' setting during minimization
Generated 91 of 91 mixed pair_coeff terms from geometric mixing rule
Last active /omp style is dihedral_style harmonic/omp
Per MPI rank memory allocation (min/avg/max) = 40.42 | 40.42 | 40.42 Mbytes
   Step          Temp          PotEng         Press          Volume           Lx          Density    
     50040   301.37962      7388.3669      633.6541       69599.227      41.13405       0.98855831   
     50058   301.37962      2340.7954      1748.751       69599.227      41.13405       0.98855831   
Loop time of 1.37104 on 4 procs for 18 steps with 6084 atoms

353.3% CPU use with 1 MPI tasks x 4 OpenMP threads

Minimization stats:
  Stopping criterion = linesearch alpha is zero
  Energy initial, next-to-last, final = 
      7388.36691279461   2340.79541672617   2340.79541672617
  Force two-norm initial, final = 2636.9111 215.97102
  Force max component initial, final = 120.06861 27.53837
  Final line search alpha, max atom move = 2.2322591e-13 6.1472779e-12
  Iterations, force evaluations = 18 103

MPI task timing breakdown:
Section |  min time  |  avg time  |  max time  |%varavg| %total
---------------------------------------------------------------
Pair    | 1.2447     | 1.2447     | 1.2447     |   0.0 | 90.78
Bond    | 0.096715   | 0.096715   | 0.096715   |   0.0 |  7.05
Neigh   | 0          | 0          | 0          |   0.0 |  0.00
Comm    | 0.010189   | 0.010189   | 0.010189   |   0.0 |  0.74
Output  | 0          | 0          | 0          |   0.0 |  0.00
Modify  | 0.010636   | 0.010636   | 0.010636   |   0.0 |  0.78
Other   |            | 0.00882    |            |       |  0.64

Nlocal:           6084 ave        6084 max        6084 min
Histogram: 1 0 0 0 0 0 0 0 0 0
Nghost:          15629 ave       15629 max       15629 min
Histogram: 1 0 0 0 0 0 0 0 0 0
Neighs:    2.04422e+06 ave 2.04422e+06 max 2.04422e+06 min
Histogram: 1 0 0 0 0 0 0 0 0 0

Total # of neighbors = 2044217
Ave neighs/atom = 335.99885
Ave special neighs/atom = 11.467456
Neighbor list builds = 0
Dangerous builds = 0


#Compression from 0 to 4000 atm
fix                              1 all npt temp 300.0 300.0 100.0 iso 0.0 4000.0 1000.0
run                              250000
Generated 91 of 91 mixed pair_coeff terms from geometric mixing rule
Last active /omp style is dihedral_style harmonic/omp
Per MPI rank memory allocation (min/avg/max) = 38.17 | 38.17 | 38.17 Mbytes
   Step          Temp          PotEng         Press          Volume           Lx          Density    
     50058   301.37962      2340.7954      1748.751       69599.227      41.13405       0.98855831   
     50100   156.09556      5551.8638      1328.8252      69559.919      41.126305      0.98911693   
     50200   184.33898      5370.7798      2986.575       69261.239      41.067357      0.99338237   
     50300   208.16862      5315.7872      1976.3681      68946.856      41.005127      0.99791198   
     50400   226.0222       5029.7221      499.79114      69087.898      41.033068      0.99587476   
     50500   238.89978      6302.099       51.779443      69580.226      41.130306      0.98882826   
     50600   263.81993      6545.3888      1246.4489      70033.691      41.219464      0.98242564   
     50700   284.95172      6289.1811     -222.98793      70467.375      41.304373      0.97637941   
     50800   298.39427      6521.228      -392.32665      70758.076      41.361093      0.97236807   
     50900   310.6606       6260.3002     -0.62686593     70948.758      41.398213      0.96975473   
     51000   309.10057      6071.2366      469.7195       71179.003      41.442947      0.96661783   
     51100   298.6226       6108.8678     -257.86877      71294.313      41.465314      0.96505444   
     51200   291.4856       6602.1721     -159.36674      71282.367      41.462998      0.96521617   
     51300   292.90994      6848.0728     -729.28273      71351.754      41.476447      0.96427755   
     51400   298.65946      6548.9462     -1598.4847      71340.566      41.474279      0.96442877   
     51500   300.57753      6634.5489      373.93173      71160.474      41.439351      0.96686953   
     51600   308.55101      7131.4917     -471.71612      70935.9        41.395712      0.96993052   
     51700   300.18046      6992.561       392.25512      70723.677      41.354389      0.97284102   
     51800   296.19349      7150.8475      186.75496      70820.655      41.373283      0.97150886   
     51900   293.01062      6719.0283      216.31178      71000.547      41.408284      0.96904737   
     52000   297.11833      6755.8321     -55.789374      70940.183      41.396546      0.96987195   
     52100   300.77461      6742.8439     -72.280752      70836.506      41.376369      0.97129147   
     52200   301.18711      6545.0157     -651.60445      70826.878      41.374494      0.9714235    
     52300   301.0941       6382.7984     -428.31626      70589.528      41.328226      0.97468982   
     52400   299.53366      6204.8171     -278.10385      70350.369      41.281499      0.97800331   
     52500   298.93079      6596.8043     -317.12555      70083.411      41.229216      0.98172867   
     52600   299.05141      6962.0189     -18.117756      69690.537      41.152031      0.98726307   
     52700   298.1256       7197.6125      908.71579      69530.438      41.120494      0.98953632   
     52800   302.92583      6495.0064     -531.45704      69645.263      41.143117      0.98790487   
     52900   302.14973      6673.9153      349.07763      69655.999      41.145231      0.9877526    
     53000   302.24028      6723.2293     -594.09665      69711.41       41.156139      0.98696747   
     53100   296.15151      6249.7675     -1580.5731      69762.316      41.166154      0.98624727   
     53200   299.08594      6958.7834     -344.04366      69807.395      41.175019      0.98561039   
     53300   298.17724      6904.9032      243.77047      69901.797      41.193572      0.98427933   
     53400   299.53216      6977.9836     -317.12356      70024.244      41.21761       0.98255819   
     53500   305.64042      6589.6285      491.19968      70005.158      41.213865      0.98282606   
     53600   304.61623      6713.8288     -318.94436      69876.965      41.188693      0.98462912   
     53700   300.83232      6523.5635      168.22753      69857.356      41.18484       0.98490549   
     53800   300.7985       6176.468       126.13814      69731.629      41.160117      0.9866813    
     53900   295.66069      6322.774      -1448.8833      69684.908      41.150923      0.98734282   
     54000   295.86983      6895.1353     -1175.5756      69424.111      41.099522      0.99105186   
     54100   299.36375      6776.6501      251.19912      69251.073      41.065348      0.99352819   
     54200   304.2602       6355.7198      143.06658      69138.572      41.043098      0.99514484   
     54300   299.36085      6215.9712     -530.4489       69189.625      41.053198      0.99441056   
     54400   296.18392      6042.2319      344.75497      69321.766      41.079316      0.99251502   
     54500   295.93438      6018.8832     -444.24148      69297.851      41.074592      0.99285755   
     54600   302.49084      5908.0395     -399.34467      69080.41       41.031586      0.9959827    
     54700   302.07314      7158.4277      1124.3993      68713.979      40.958908      1.001294     
     54800   299.45949      6864.2637      806.54333      68591.304      40.934519      1.0030848    
     54900   299.99664      6969.1938     -230.19924      68603.903      40.937025      1.0029006    
     55000   299.338        6136.9338      1038.9157      68555.71       40.927437      1.0036056    
     55100   299.26325      6226.4345      1208.4332      68477.681      40.911903      1.0047492    
     55200   303.78784      6630.915      -876.61616      68469.807      40.910335      1.0048647    
     55300   302.01002      6381.6603      1145.8593      68365.277      40.889506      1.0064012    
     55400   305.17188      6294.8462      1246.1596      68317.979      40.880074      1.0070979    
     55500   301.20963      6276.8164     -493.37548      68380.593      40.892559      1.0061757    
     55600   296.79224      6398.9853     -207.33876      68454.506      40.907287      1.0050893    
     55700   297.5972       6778.1984      847.02149      68353.162      40.88709       1.0065795    
     55800   297.08596      6308.7964      1060.6413      68282.11       40.872918      1.007627     
     55900   299.29241      6514.5469     -274.93868      68315.713      40.879622      1.0071313    
     56000   300.1023       6984.5019     -1183.8257      68286.325      40.873759      1.0075647    
     56100   301.69227      6267.2383      320.41092      68290.577      40.874607      1.007502     
     56200   299.54051      6127.1156      549.16796      68332.748      40.883019      1.0068802    
     56300   297.84792      6131.537      -1643.8262      68358.869      40.888228      1.0064955    
     56400   298.71548      6056.8389      272.70253      68126.399      40.841825      1.00993      
     56500   301.31881      6759.4402      135.55354      67944.966      40.805537      1.0126268    
     56600   303.41315      6389.547      -861.46428      67758.491      40.768172      1.0154136    
     56700   296.62361      6903.848       562.07625      67530.307      40.722357      1.0188447    
     56800   296.13463      6451.9299      1336.6484      67362.509      40.6886        1.0213826    
     56900   296.96642      6522.8224      608.47775      67371.578      40.690426      1.0212451    
     57000   301.35011      6469.8849     -537.92324      67480.506      40.712344      1.0195966    
     57100   302.7834       6293.3832     -599.56056      67736.704      40.763802      1.0157402    
     57200   300.70673      6223.3581     -306.54916      67927.076      40.801955      1.0128935    
     57300   295.05602      5985.1841     -10.95626       67993.511      40.815253      1.0119038    
     57400   300.68419      6301.9904     -52.09094       68002.933      40.817138      1.0117636    
     57500   293.36269      6365.0606     -267.25564      67770.75       40.770631      1.0152299    
     57600   302.42541      6897.9575      1290.9934      67615.861      40.739547      1.0175555    
     57700   305.23953      6877.4953      548.3399       67695.004      40.755436      1.0163659    
     57800   300.46459      6889.1589     -249.61761      67695.97       40.755629      1.0163514    
     57900   293.85944      6478.9777      254.78163      67773.317      40.771145      1.0151915    
     58000   298.31551      6471.4273      392.87947      67908.227      40.798181      1.0131746    
     58100   297.42646      6088.4878     -652.30977      67903.705      40.797275      1.0132421    
     58200   301.87146      6289.0568     -174.6303       67804.624      40.777422      1.0147227    
     58300   300.0565       6808.986       1476.5159      67696.217      40.755679      1.0163477    
     58400   298.67921      6036.8479      360.47566      67689.768      40.754385      1.0164445    
     58500   298.7207       6166.8387      108.34137      67588.445      40.73404       1.0179683    
     58600   295.00789      7023.0242      883.16052      67460.02       40.708224      1.0199062    
     58700   298.65336      6611.4912     -192.88192      67224.962      40.660888      1.0234724    
     58800   300.51644      6688.1081      563.23753      67160.18       40.647822      1.0244596    
     58900   295.35761      7074.4453      532.91332      67224.552      40.660805      1.0234787    
     59000   300.75554      6635.7576     -1315.9938      67317.538      40.679544      1.0220649    
     59100   297.57621      6530.7994     -527.7889       67295.654      40.675135      1.0223973    
     59200   296.14546      6841.1804      606.56779      67133.413      40.642421      1.0248681    
     59300   297.46109      6631.1541     -1445.973       67201.615      40.65618       1.023828     
     59400   303.27336      6434.9232     -136.27127      67279.222      40.671824      1.022647     
     59500   303.58795      6529.9223      1316.193       67330.751      40.682205      1.0218644    
     59600   303.0595       6298.6604     -609.51004      67395.443      40.69523       1.0208835    
     59700   294.92158      6358.8291     -182.07139      67314.246      40.678881      1.0221149    
     59800   298.42278      6587.1451      270.62278      67254.909      40.666925      1.0230167    
     59900   297.97404      6259.2942     -877.88697      67327.034      40.681457      1.0219208    
     60000   303.03211      6080.913      -268.5134       67358.452      40.687784      1.0214441    
     60100   299.82951      6142.4665      565.2778       67396.637      40.695471      1.0208654    
     60200   301.93944      6101.9768      616.88225      67474.341      40.711104      1.0196897    
     60300   300.86121      5990.6068      969.14874      67732.971      40.763054      1.0157962    
     60400   300.71696      6447.7426      728.56162      67862.881      40.789098      1.0138517    
     60500   297.32492      5857.6631     -45.644075      67722.027      40.760858      1.0159603    
     60600   298.50931      6710.745       460.77447      67423.641      40.700905      1.0204565    
     60700   302.11853      6936.6178      967.02281      67212.32       40.658339      1.0236649    
     60800   305.96382      6444.2464      192.98026      67196.178      40.655083      1.0239108    
     60900   299.54877      6256.0405     -77.137618      67388.549      40.693843      1.0209879    
     61000   297.01046      6209.5174      1279.2977      67441.509      40.7045        1.0201862    
     61100   297.60686      6137.4751     -425.72158      67598.612      40.736082      1.0178152    
     61200   298.23269      6509.2636      333.11498      67560.861      40.728498      1.0183839    
     61300   299.80594      6283.6736     -728.01303      67294.887      40.674981      1.0224089    
     61400   299.8365       6357.7123      129.23896      66956.628      40.606715      1.0275741    
     61500   297.54208      6395.7689      845.78746      66626.589      40.539886      1.0326642    
     61600   294.49382      6354.4734     -260.02052      66478.541      40.509837      1.034964     
     61700   298.38498      6523.8284      899.73116      66376.647      40.489129      1.0365527    
     61800   301.16354      6867.688      -67.328965      66574.814      40.529383      1.0334673    
     61900   302.73696      6084.8009      683.48915      66830.155      40.581132      1.0295187    
     62000   302.09679      6024.4916     -654.79725      67085.26       40.632702      1.0256037    
     62100   301.88977      5979.8672     -248.45177      67334.376      40.682935      1.0218093    
     62200   302.03388      6299.0847     -75.941703      67429.888      40.702162      1.020362     
     62300   300.57289      6400.3694      1836.6456      67307.823      40.677587      1.0222124    
     62400   299.63378      6128.5635     -1022.478       67265.444      40.669048      1.0228565    
     62500   298.04532      6191.7077     -46.693484      67015.319      40.618576      1.0266741    
     62600   301.76115      6638.4047      2074.193       66841.361      40.5834        1.0293461    
     62700   303.16949      6625.7674     -865.27         66897.884      40.594836      1.0284764    
     62800   296.22528      6519.1276      533.22729      66987.241      40.612903      1.0271045    
     62900   299.99677      5893.1982     -493.25509      67225.235      40.660943      1.0234683    
     63000   300.09656      6339.56        548.85327      67377.564      40.691631      1.0211544    
     63100   300.7141       6381.4089     -104.24784      67301.694      40.676352      1.0223055    
     63200   300.11943      6165.9969     -410.19424      67133.597      40.642459      1.0248653    
     63300   305.4394       5267.6153      654.45808      67035.297      40.622612      1.0263682    
     63400   306.06012      6229.8049      1258.0942      66813.886      40.577839      1.0297694    
     63500   300.13081      6196.4914     -759.26394      66807.249      40.576495      1.0298717    
     63600   297.13608      6263.7998      900.69823      66868.507      40.588893      1.0289282    
     63700   294.26369      5994.2596      378.3188       66956.704      40.606731      1.0275729    
     63800   301.20143      6061.4627      106.31082      66968.86       40.609188      1.0273864    
     63900   300.68061      6448.2908      617.85273      66935.93       40.60253       1.0278918    
     64000   303.98911      5772.9627      1046.8466      66886.104      40.592453      1.0286575    
     64100   298.29092      5993.3837      368.69762      66735.543      40.561973      1.0309783    
     64200   302.10925      6165.8926      1273.4418      66490.05       40.512174      1.0347848    
     64300   299.41721      6350.6889      761.39365      66465.609      40.50721       1.0351653    
     64400   303.20778      6150.0818      888.51638      66518.888      40.518031      1.0343362    
     64500   305.81218      5864.1201      1195.1514      66383.646      40.490552      1.0364434    
     64600   299.9582       6223.0345      1104.3581      66381.372      40.49009       1.0364789    
     64700   301.64301      6228.4889     -207.03497      66489.567      40.512076      1.0347923    
     64800   305.95043      6093.8652      916.96272      66490.932      40.512353      1.0347711    
     64900   299.56788      5568.6591      717.0367       66488.069      40.511772      1.0348156    
     65000   291.26806      6082.3795     -862.78132      66471.062      40.508318      1.0350804    
     65100   295.12818      6268.5385      32.027931      66441.32       40.502275      1.0355438    
     65200   301.95098      6077.8632     -210.31855      66341.498      40.481981      1.0371019    
     65300   297.87021      5920.0528     -1780.5703      66262.651      40.465937      1.038336     
     65400   301.75605      6038.3763      456.79144      66212.642      40.455755      1.0391202    
     65500   298.58926      6240.7196     -285.87129      66243.473      40.462033      1.0386366    
     65600   296.44973      5930.7191      956.95853      66274.353      40.468319      1.0381526    
     65700   295.28222      6394.0578      166.17102      66355.43       40.484815      1.0368842    
     65800   295.7652       6661.8909     -269.66026      66414.382      40.496801      1.0359638    
     65900   297.91049      6630.5175     -96.157215      66479.303      40.509992      1.0349521    
     66000   305.40561      6461.8977      1496.1625      66436.126      40.501219      1.0356247    
     66100   298.3691       6642.3717      1710.0221      66538.629      40.522038      1.0340293    
     66200   292.7561       6037.0557     -273.33622      66837.463      40.582611      1.0294061    
     66300   301.18357      5856.9422     -329.9889       67108.692      40.637432      1.0252456    
     66400   303.13403      6028.692      -84.336587      67231.985      40.662304      1.0233655    
     66500   307.38696      6043.3966     -874.60868      67119.473      40.639608      1.025081     
     66600   301.14322      6958.3543      587.3032       66706.339      40.556055      1.0314296    
     66700   298.25984      6868.9944      1395.8055      66430.613      40.500099      1.0357107    
     66800   302.74745      6570.2995      143.84431      66496.466      40.513477      1.034685     
     66900   295.97551      6295.5664      541.91186      66733.786      40.561617      1.0310054    
     67000   302.68936      6182.6304     -937.20945      66948.065      40.604984      1.0277055    
     67100   307.41164      6610.8332      1051.8927      66808.278      40.576703      1.0298558    
     67200   302.89771      6607.2463      555.38751      66623.983      40.539358      1.0327046    
     67300   299.52065      6032.7062      878.51365      66461.779      40.506432      1.035225     
     67400   298.25016      6137.7404      2151.6215      66342.375      40.482159      1.0370882    
     67500   298.23416      6248.3797     -8.8406208      66472.635      40.508637      1.0350559    
     67600   302.91793      6023.9681      360.01789      66659.215      40.546503      1.0321588    
     67700   304.12374      6070.1906     -539.90278      66775.822      40.570131      1.0303564    
     67800   305.50587      6141.1623     -286.37053      66814.922      40.578048      1.0297534    
     67900   302.35117      5866.6972      34.773718      66803.049      40.575645      1.0299364    
     68000   300.32864      6163.7044     -225.08077      66758.545      40.566632      1.030623     
     68100   297.02075      6312.8987      1154.9498      66534.167      40.521133      1.0340987    
     68200   301.35921      6497.1035      907.89023      66394.967      40.492854      1.0362667    
     68300   304.44771      6208.5835      132.6019       66349.069      40.483521      1.0369836    
     68400   298.00208      5937.5429      228.26151      66318.224      40.477247      1.0374659    
     68500   302.21567      6350.1038      494.5803       66239.053      40.461133      1.0387059    
     68600   298.86111      6394.0897      471.038        66112.636      40.435377      1.040692     
     68700   296.61063      6512.2132      746.63708      65870.277      40.385906      1.0445211    
     68800   298.59805      6851.0802      1785.9115      65621.668      40.335033      1.0484783    
     68900   302.9037       6472.6303      625.72735      65423.206      40.29433       1.0516589    
     69000   300.98999      7011.4437      1235.1932      65304.667      40.269979      1.0535678    
     69100   297.69963      6843.63        574.80419      65292.395      40.267457      1.0537658    
     69200   298.56151      6506.4796      953.04112      65417.829      40.293226      1.0517453    
     69300   295.90637      5630.9711      363.70604      65736.968      40.358643      1.0466393    
     69400   302.68142      6062.7059      164.38302      65759.445      40.363242      1.0462815    
     69500   302.6426       6456.5621     -348.78744      65634.807      40.337725      1.0482684    
[...]
   2482100   298.86781      5156.545      -6.5902868      53828.113      37.757484      1.2781963    
   2482200   307.89604      5161.9771      667.24262      53844.013      37.761202      1.2778188    
   2482300   304.04494      5893.2075      519.73165      53795.149      37.749775      1.2789795    
   2482400   300.6935       6539.2953     -1729.0061      53721.49       37.732538      1.2807332    
   2482500   299.18904      5874.1846      1238.5572      53701.997      37.727974      1.281198     
   2482600   297.78625      5296.8918      1169.6555      53852.627      37.763215      1.2776144    
   2482700   301.18133      5427.6387     -1209.5687      53881.174      37.769887      1.2769375    
   2482800   303.74491      5723.835      -1046.823       53852.963      37.763294      1.2776065    
   2482900   307.61477      5163.0508     -358.64104      53838.476      37.759907      1.2779502    
   2483000   305.1025       5539.1582      353.98681      53878.552      37.769274      1.2769997    
   2483100   298.46131      5642.3997     -580.67809      53938.353      37.783243      1.2755839    
   2483200   298.97217      5130.2608     -817.33623      53839.864      37.760232      1.2779173    
   2483300   297.05235      5621.8082      2622.1633      53741.45       37.73721       1.2802575    
   2483400   304.03958      5543.8223      1886.1446      53821.76       37.755999      1.2783472    
   2483500   304.58706      5295.9992      1955.0185      53865.06       37.766121      1.2773195    
   2483600   299.57455      6088.9774      76.826237      54018.736      37.802002      1.2736857    
   2483700   296.85859      5749.8706      381.77923      53984.37       37.793984      1.2744966    
   2483800   295.50678      5775.227       1246.533       53803.28       37.751677      1.2787862    
   2483900   304.21228      5787.7075      1134.6537      53710.689      37.730009      1.2809907    
   2484000   300.23602      5982.3261     -206.64908      53803.385      37.751702      1.2787837    
   2484100   299.70665      5776.1408     -256.5491       53911.287      37.776922      1.2762243    
   2484200   295.37991      5723.408      -5.9055696      53935.835      37.782655      1.2756434    
   2484300   299.40052      5426.5275     -306.12833      53886.653      37.771167      1.2768077    
   2484400   297.08353      5461.9385      665.05075      53924.541      37.780017      1.2759106    
   2484500   301.14572      6146.481      -546.34482      54040.061      37.806976      1.2731831    
   2484600   298.65346      5568.5935     -293.70612      54059.541      37.811518      1.2727243    
   2484700   303.89802      5515.6328      80.50033       53995.207      37.796513      1.2742408    
   2484800   302.34738      5291.9578      413.83827      53910.11       37.776647      1.2762521    
   2484900   296.91228      5354.6632      473.34463      53681.861      37.723257      1.2816786    
   2485000   295.73485      5476.1295     -278.24915      53630.072      37.711123      1.2829163    
   2485100   297.876        5449.3645      1074.1851      53615.305      37.707661      1.2832696    
   2485200   296.02149      6067.0913     -425.72212      53634.184      37.712086      1.2828179    
   2485300   305.5669       5822.3739      168.90346      53759.993      37.74155       1.2798159    
   2485400   301.23624      5385.7685     -135.43758      53873.005      37.767978      1.2771312    
   2485500   299.11302      5540.7107      39.838103      53858.991      37.764703      1.2774635    
   2485600   296.38496      5785.6987      694.2009       53847.386      37.76199       1.2777388    
   2485700   297.94222      5280.1133     -757.45811      53932.685      37.781919      1.2757179    
   2485800   298.48594      5227.9868     -1281.3148      53898.532      37.773942      1.2765263    
   2485900   299.66971      5375.7656     -57.162312      53804.675      37.752003      1.2787531    
   2486000   296.65988      6003.1264     -143.68672      53735.988      37.735932      1.2803876    
   2486100   299.09947      5963.0754      639.02388      53631.309      37.711412      1.2828867    
   2486200   298.43288      5651.7136      763.82717      53634.021      37.712048      1.2828219    
   2486300   299.18568      5486.9748     -588.04944      53669.567      37.720378      1.2819722    
   2486400   299.1351       5924.3597      726.58873      53673.298      37.721252      1.2818831    
   2486500   298.27954      5885.0141      1127.3597      53666.737      37.719714      1.2820398    
   2486600   300.31756      5495.6171      114.7066       53718.252      37.73178       1.2808104    
   2486700   298.87783      4932.0521     -501.16033      53843.546      37.761092      1.2778299    
   2486800   301.01887      5085.4652     -845.22286      53906.823      37.775879      1.27633      
   2486900   299.22931      5555.3278     -1314.0561      53901.475      37.77463       1.2764566    
   2487000   297.79165      5939.7599      96.985349      53712.904      37.730528      1.2809379    
   2487100   294.11548      5558.6437     -672.97362      53564.066      37.695645      1.2844972    
   2487200   298.09321      5871.0349     -716.39148      53421.108      37.66208       1.2879346    
   2487300   297.52492      6646.0697      174.05718      53439.625      37.666431      1.2874883    
   2487400   304.18097      5749.5595     -998.66351      53730.893      37.734739      1.280509     
   2487500   298.9273       5388.7266     -201.87572      53866.588      37.766478      1.2772833    
   2487600   295.73147      5277.3072     -1649.337       53897.129      37.773614      1.2765595    
   2487700   296.12677      6267.0338     -453.16851      53807.007      37.752549      1.2786977    
   2487800   303.64391      5632.5546      272.16024      53743.786      37.737757      1.2802019    
   2487900   300.09605      5825.4075      1248.0629      53676.354      37.721968      1.2818101    
   2488000   297.0817       5929.6197      724.28406      53767.286      37.743257      1.2796423    
   2488100   299.11312      5787.7815      377.96168      53851.975      37.763063      1.2776299    
   2488200   297.53848      5568.6546     -979.82434      53913.976      37.77755       1.2761606    
   2488300   300.37444      5744.3943      648.56341      53808.573      37.752915      1.2786605    
   2488400   305.75658      5139.0975      978.76822      53738.937      37.736622      1.2803174    
   2488500   304.78801      5543.3485      1031.9221      53795.03       37.749748      1.2789823    
   2488600   298.57529      5056.5484     -260.89066      53970.299      37.7907        1.2748289    
   2488700   297.28602      5139.8318     -990.20047      54155.038      37.83377       1.27048      
   2488800   295.57619      5544.4978     -2100.1231      54058.821      37.811351      1.2727413    
   2488900   301.1674       6074.2025      40.071391      53698.27       37.727101      1.281287     
   2489000   305.62202      5964.3039      1218.8814      53473.924      37.674487      1.2866625    
   2489100   300.36677      5770.8125      349.62469      53480.909      37.676128      1.2864945    
   2489200   299.57048      5497.1445     -110.48587      53651.71       37.716194      1.2823989    
   2489300   295.29543      5249.1654      602.21623      53760.054      37.741565      1.2798144    
   2489400   297.87069      5362.6917      854.14918      53698.863      37.72724       1.2812728    
   2489500   301.3357       5493.2213      83.630999      53774.964      37.745053      1.2794596    
   2489600   303.54931      5557.9813     -1047.2569      53842.84       37.760928      1.2778467    
   2489700   300.52156      5579.0735      281.33405      53889.97       37.771942      1.2767291    
   2489800   295.45743      5554.4563     -109.95199      53907.344      37.776001      1.2763176    
   2489900   290.06558      5080.1611      132.17096      53785.955      37.747625      1.2791981    
   2490000   295.9288       4863.8544     -339.47753      53671.446      37.720818      1.2819273    
   2490100   298.91348      5537.8221     -1045.7182      53480.994      37.676148      1.2864924    
   2490200   298.3315       5745.7441      209.62594      53418.369      37.661436      1.2880006    
   2490300   296.7981       5277.4583     -1173.5603      53530.658      37.687806      1.2852989    
   2490400   300.20739      4751.703      -364.2327       53662.295      37.718674      1.2821459    
   2490500   299.2458       5524.4057      567.40564      53801.63       37.751291      1.2788254    
   2490600   300.90677      5503.1135     -599.55683      53826.137      37.757022      1.2782432    
   2490700   303.60591      5043.2657     -941.08007      53861.801      37.76536       1.2773968    
   2490800   302.15108      5362.0216      222.46035      53876.542      37.768805      1.2770473    
   2490900   297.75237      5792.043      -748.46353      53864.679      37.766032      1.2773286    
   2491000   301.61186      5201.9945     -1467.1322      53916.994      37.778255      1.2760892    
   2491100   296.72161      5749.1893      776.11239      53984.764      37.794076      1.2744873    
   2491200   299.85807      5715.9015     -295.20594      53935.837      37.782655      1.2756434    
   2491300   304.26529      5366.658       997.3516       53844.684      37.761359      1.2778029    
   2491400   303.67067      5870.9466      123.34933      53785.444      37.747505      1.2792103    
   2491500   301.09302      5598.3569     -636.03515      53814.231      37.754238      1.278526     
   2491600   298.55028      5296.5442     -521.72868      53907.461      37.776028      1.2763149    
   2491700   303.9096       4593.708      -455.64248      53912.955      37.777311      1.2761848    
   2491800   300.40189      5419.7885      1398.3588      53769.136      37.74369       1.2795983    
   2491900   301.40244      5684.9966      580.81636      53641.199      37.713731      1.2826502    
   2492000   307.66994      5703.1737      42.792639      53715.996      37.731252      1.2808641    
   2492100   304.65387      5207.8221     -707.54055      53921.882      37.779396      1.2759735    
   2492200   302.11836      4872.9157      17.483466      53917.533      37.778381      1.2760764    
   2492300   296.91042      5790.722       481.091        53931.185      37.781569      1.2757534    
   2492400   299.6181       5729.9451      391.53364      53880.464      37.769721      1.2769544    
   2492500   302.92806      5247.0418      106.22345      53852.507      37.763187      1.2776173    
   2492600   302.03497      4915.3088      1088.5969      53765.088      37.742742      1.2796946    
   2492700   305.73943      5233.3004      650.00778      53655.233      37.717019      1.2823147    
   2492800   304.94666      5505.2963      1433.9318      53548.489      37.691991      1.2848709    
   2492900   299.62284      6252.5252      1146.9506      53577.37       37.698766      1.2841783    
   2493000   294.17954      5927.082       3.029455       53582.243      37.699909      1.2840615    
   2493100   299.9562       5909.4184      1318.7343      53671.614      37.720857      1.2819233    
   2493200   309.02179      5601.5166     -1007.5153      53828.058      37.757471      1.2781976    
   2493300   301.26795      5450.4803      480.40659      53896.696      37.773513      1.2765698    
   2493400   301.30133      5533.6454      83.222279      53931.498      37.781642      1.275746     
   2493500   297.92628      5375.8906      500.68795      53978.807      37.792686      1.2746279    
   2493600   300.27774      5285.8771     -597.87413      54073.277      37.814721      1.272401     
   2493700   296.93299      5436.5378      1687.5841      53972.495      37.791213      1.274777     
   2493800   301.17044      5494.7974     -42.472729      53884.723      37.770716      1.2768534    
   2493900   300.35057      5690.1033     -945.97643      53763.294      37.742323      1.2797373    
   2494000   300.94166      5802.2854      381.94021      53673.785      37.721366      1.2818715    
   2494100   298.60918      5218.9759     -439.1094       53783.328      37.74701       1.2792606    
   2494200   298.57191      5044.1373     -1330.9689      53805.561      37.752211      1.278732     
   2494300   297.9944       5493.3287      1808.0898      53711.78       37.730264      1.2809647    
   2494400   299.62043      4974.8429     -834.88461      53746.597      37.738415      1.2801349    
   2494500   304.83594      5127.2951      347.59766      53763.62       37.742399      1.2797296    
   2494600   303.38203      5468.9702     -990.94126      53791.127      37.748835      1.2790751    
   2494700   301.97019      6030.8861     -951.60344      53719.965      37.732181      1.2807695    
   2494800   298.52932      5544.964       228.74398      53696.007      37.726571      1.281341     
   2494900   297.14708      4616.1866     -341.88609      53750.361      37.739296      1.2800452    
   2495000   295.51241      5123.8585     -1513.3274      53795.186      37.749784      1.2789786    
   2495100   298.79124      5246.479      -1145.9087      53656.195      37.717245      1.2822917    
   2495200   300.01039      5637.9374      2173.2869      53580.242      37.699439      1.2841094    
   2495300   296.36183      5197.1066     -232.72569      53735.157      37.735737      1.2804074    
   2495400   298.10398      5296.9387      319.06173      53818.19       37.755164      1.278432     
   2495500   301.48713      5011.1377     -1738.6953      53977.892      37.792473      1.2746495    
   2495600   299.30209      5370.3448     -744.08471      53965.718      37.789631      1.2749371    
   2495700   299.70268      5679.5405     -132.2805       54000.926      37.797847      1.2741058    
   2495800   294.65572      5564.6111     -83.704196      54053.932      37.810211      1.2728564    
   2495900   301.76941      5188.8593     -1293.342       53975.336      37.791876      1.2747099    
   2496000   305.35124      5482.5486      566.45846      53749.189      37.739022      1.2800732    
   2496100   303.98192      5806.2215      817.55547      53621.863      37.709198      1.2831127    
   2496200   300.53031      5780.4147      555.09695      53571.279      37.697337      1.2843243    
   2496300   296.51632      5588.435      -32.937348      53642.959      37.714143      1.2826081    
   2496400   298.63282      5058.7339     -1012.7866      53752.73       37.73985       1.2799888    
   2496500   304.04004      5451.6594      297.2361       53890.751      37.772124      1.2767106    
   2496600   304.12179      5364.8863     -1826.6117      53887.962      37.771473      1.2767767    
   2496700   309.2851       4748.4119      792.61995      53731.814      37.734955      1.2804871    
   2496800   305.08637      5368.926      -708.9137       53766.639      37.743105      1.2796577    
   2496900   300.59279      4632.045       142.78376      53752.678      37.739838      1.2799901    
   2497000   299.67217      5367.0783      2502.182       53633.948      37.712031      1.2828236    
   2497100   299.60397      5289.0957     -102.48906      53693.005      37.725868      1.2814126    
   2497200   298.8638       4887.9306      23.128149      53804.455      37.751952      1.2787583    
   2497300   302.7437       5232.126       95.397015      53787.187      37.747913      1.2791688    
   2497400   299.66519      5650.6711      988.7792       53788.593      37.748242      1.2791354    
   2497500   297.32644      5395.2751      883.37569      53890.88       37.772155      1.2767076    
   2497600   301.10443      4902.0149     -88.709866      53910.89       37.776829      1.2762337    
   2497700   301.45727      4860.3515      7.1333844      53753.143      37.739947      1.279979     
   2497800   303.51788      5346.6732      717.60236      53527.273      37.687012      1.2853801    
   2497900   299.98468      4643.7698      781.14323      53378.944      37.652168      1.2889519    
   2498000   304.86694      5032.441       260.90553      53454.809      37.669998      1.2871226    
   2498100   302.71443      6122.7481      302.40339      53757.011      37.740852      1.2798869    
   2498200   305.19204      5512.303      -628.31661      54065.901      37.813001      1.2725746    
   2498300   297.27183      5213.9043     -465.243        54228.103      37.850777      1.2687682    
   2498400   300.1573       5376.2171      625.15584      54112.348      37.823826      1.2714823    
   2498500   299.46508      6031.644       1448.296       53971.026      37.79087       1.2748117    
   2498600   297.21556      5972.08        497.23567      53914.32       37.77763       1.2761525    
   2498700   301.1479       5569.1692     -184.93468      53969.73       37.790568      1.2748423    
   2498800   296.36889      5601.454      -20.567711      53879.346      37.76946       1.2769809    
   2498900   300.26646      5389.2795      49.295965      53852.066      37.763084      1.2776278    
   2499000   297.7929       5547.1913     -1337.35        53978.628      37.792644      1.2746321    
   2499100   298.53664      5127.8374     -872.52657      54095.323      37.819859      1.2718825    
   2499200   297.9823       5377.7841     -1738.3878      54035.001      37.805796      1.2733024    
   2499300   298.6083       5300.4151      636.19456      53890.21       37.771998      1.2767234    
   2499400   305.63949      5942.5281     -726.03892      53750.419      37.73931       1.2800439    
   2499500   302.63543      5940.0747     -322.08933      53582.143      37.699885      1.2840639    
   2499600   296.34651      5602.9913      1338.0895      53562.994      37.695394      1.2845229    
   2499700   296.85185      5545.5648      314.19514      53610.449      37.706523      1.2833859    
   2499800   299.24116      5432.4133     -710.75844      53690.503      37.725282      1.2814723    
   2499900   299.05746      5533.1777     -355.3796       53780.372      37.746319      1.2793309    
   2500000   303.87529      5243.6494      849.75921      53837.045      37.759573      1.2779842    
   2500058   300.18645      5035.1954     -2534.9298      53877.075      37.768929      1.2770347    
Loop time of 5917.42 on 4 procs for 600000 steps with 6084 atoms

Performance: 8.761 ns/day, 2.740 hours/ns, 101.396 timesteps/s
338.6% CPU use with 1 MPI tasks x 4 OpenMP threads

MPI task timing breakdown:
Section |  min time  |  avg time  |  max time  |%varavg| %total
---------------------------------------------------------------
Pair    | 4122.5     | 4122.5     | 4122.5     |   0.0 | 69.67
Bond    | 574.82     | 574.82     | 574.82     |   0.0 |  9.71
Neigh   | 612.37     | 612.37     | 612.37     |   0.0 | 10.35
Comm    | 82.617     | 82.617     | 82.617     |   0.0 |  1.40
Output  | 1.6969     | 1.6969     | 1.6969     |   0.0 |  0.03
Modify  | 510.23     | 510.23     | 510.23     |   0.0 |  8.62
Other   |            | 13.14      |            |       |  0.22

Nlocal:           6084 ave        6084 max        6084 min
Histogram: 1 0 0 0 0 0 0 0 0 0
Nghost:          20543 ave       20543 max       20543 min
Histogram: 1 0 0 0 0 0 0 0 0 0
Neighs:    2.45214e+06 ave 2.45214e+06 max 2.45214e+06 min
Histogram: 1 0 0 0 0 0 0 0 0 0

Total # of neighbors = 2452138
Ave neighs/atom = 403.04701
Ave special neighs/atom = 11.467456
Neighbor list builds = 29584
Dangerous builds = 0
unfix             5


#final
write_data		PVA_NP_H2O_EQUILIBRATED_WITH_CHARGE.data
System init for write_data ...
Generated 91 of 91 mixed pair_coeff terms from geometric mixing rule
Last active /omp style is dihedral_style harmonic/omp

#parameter
neighbor		2.0 bin
Total wall time: 6:43:51
