LAMMPS (15 Sep 2022)
OMP_NUM_THREADS environment is not set. Defaulting to 1 thread. (src/comm.cpp:98)
  using 1 OpenMP thread(s) per MPI task
Loaded 1 plugins from C:\Users\HP\AppData\Local\LAMMPS 64-bit 15Sep2022\plugins
package omp 0
using multi-threaded neighbor list subroutines
package omp 4
set 4 OpenMP thread(s) per MPI task
using multi-threaded neighbor list subroutines
# Initialization
units			real
dimension		3
processors		* * *
boundary		p p p
atom_style		full
pair_style		lj/cut/coul/cut 10.0
bond_style		harmonic
angle_style 	harmonic
read_data		PVA_GA_NC_INPUT.data
Reading data file ...
  orthogonal box = (0.1945 -0.043001 0.018501) to (90.1945 89.956999 90.018501)
  1 by 1 by 1 MPI processor grid
  reading atoms ...
  3596 atoms
  scanning bonds ...
  4 = max bonds/atom
  scanning angles ...
  6 = max angles/atom
  reading bonds ...
  3632 bonds
  reading angles ...
  6624 angles
Finding 1-2 1-3 1-4 neighbors ...
  special bond factors lj:    0        0        0       
  special bond factors coul:  0        0        0       
     4 = max # of 1-2 neighbors
     7 = max # of 1-3 neighbors
    16 = max # of 1-4 neighbors
    20 = max # of special neighbors
  special bonds CPU = 0.004 seconds
  read_data CPU = 0.058 seconds

#output

thermo			100
thermo_style	custom step temp pe press vol lx density
timestep 1

#Charge Equilibration
fix 1 all qeq/point 1 100 1.0e-6 200 param.qeq
run 1
WARNING: No fixes with time integration, atoms won't move (src/verlet.cpp:60)
Generated 136 of 136 mixed pair_coeff terms from geometric mixing rule
Last active /omp style is angle_style harmonic/omp
Neighbor list info ...
  update: every = 1 steps, delay = 10 steps, check = yes
  max neighbors/atom: 2000, page size: 100000
  master list distance cutoff = 12
  ghost atom cutoff = 12
  binsize = 6, bins = 15 15 15
  2 neighbor lists, perpetual/occasional/extra = 2 0 0
  (1) pair lj/cut/coul/cut/omp, perpetual
      attributes: half, newton on, omp
      pair build: half/bin/newton/omp
      stencil: half/bin/3d
      bin: standard
  (2) fix qeq/point, perpetual
      attributes: full, newton on
      pair build: full/bin
      stencil: full/bin/3d
      bin: standard
Per MPI rank memory allocation (min/avg/max) = 23.19 | 23.19 | 23.19 Mbytes
   Step          Temp          PotEng         Press          Volume           Lx          Density    
         0   0              35777.35      -1832.9491      729000         90             0.06203364   
         1   0              35777.369     -1832.9485      729000         90             0.06203364   
Loop time of 0.042497 on 4 procs for 1 steps with 3596 atoms

Performance: 2.033 ns/day, 11.805 hours/ns, 23.531 timesteps/s
73.5% CPU use with 1 MPI tasks x 4 OpenMP threads

MPI task timing breakdown:
Section |  min time  |  avg time  |  max time  |%varavg| %total
---------------------------------------------------------------
Pair    | 0.002053   | 0.002053   | 0.002053   |   0.0 |  4.83
Bond    | 0.000407   | 0.000407   | 0.000407   |   0.0 |  0.96
Neigh   | 0          | 0          | 0          |   0.0 |  0.00
Comm    | 4.7e-05    | 4.7e-05    | 4.7e-05    |   0.0 |  0.11
Output  | 0.000275   | 0.000275   | 0.000275   |   0.0 |  0.65
Modify  | 0.0397     | 0.0397     | 0.0397     |   0.0 | 93.42
Other   |            | 1.5e-05    |            |       |  0.04

Nlocal:           3596 ave        3596 max        3596 min
Histogram: 1 0 0 0 0 0 0 0 0 0
Nghost:           2392 ave        2392 max        2392 min
Histogram: 1 0 0 0 0 0 0 0 0 0
Neighs:         195415 ave      195415 max      195415 min
Histogram: 1 0 0 0 0 0 0 0 0 0
FullNghs:       390830 ave      390830 max      390830 min
Histogram: 1 0 0 0 0 0 0 0 0 0

Total # of neighbors = 390830
Ave neighs/atom = 108.68465
Ave special neighs/atom = 11.430478
Neighbor list builds = 0
Dangerous builds = 0
unfix 1

#intial minimization
minimize		1.0e-5 1.0e-5 10000 10000
Switching to 'neigh_modify every 1 delay 0 check yes' setting during minimization
Generated 136 of 136 mixed pair_coeff terms from geometric mixing rule
Last active /omp style is angle_style harmonic/omp
Neighbor list info ...
  update: every = 1 steps, delay = 0 steps, check = yes
  max neighbors/atom: 2000, page size: 100000
  master list distance cutoff = 12
  ghost atom cutoff = 12
  binsize = 6, bins = 15 15 15
  1 neighbor lists, perpetual/occasional/extra = 1 0 0
  (1) pair lj/cut/coul/cut/omp, perpetual
      attributes: half, newton on, omp
      pair build: half/bin/newton/omp
      stencil: half/bin/3d
      bin: standard
Per MPI rank memory allocation (min/avg/max) = 13.37 | 13.37 | 13.37 Mbytes
   Step          Temp          PotEng         Press          Volume           Lx          Density    
         1   0              35777.369     -1832.9485      729000         90             0.06203364   
        25   0              8728.3496     -105.18911      729000         90             0.06203364   
Loop time of 0.286168 on 4 procs for 24 steps with 3596 atoms

21.8% CPU use with 1 MPI tasks x 4 OpenMP threads

Minimization stats:
  Stopping criterion = linesearch alpha is zero
  Energy initial, next-to-last, final = 
      35777.3688832159   8728.34962569785   8728.34962569785
  Force two-norm initial, final = 12289.435 276.38771
  Force max component initial, final = 2061.5116 40.410675
  Final line search alpha, max atom move = 1.4404031e-13 5.8207661e-12
  Iterations, force evaluations = 24 104

MPI task timing breakdown:
Section |  min time  |  avg time  |  max time  |%varavg| %total
---------------------------------------------------------------
Pair    | 0.22143    | 0.22143    | 0.22143    |   0.0 | 77.38
Bond    | 0.046723   | 0.046723   | 0.046723   |   0.0 | 16.33
Neigh   | 0.002782   | 0.002782   | 0.002782   |   0.0 |  0.97
Comm    | 0.002303   | 0.002303   | 0.002303   |   0.0 |  0.80
Output  | 0          | 0          | 0          |   0.0 |  0.00
Modify  | 0.007347   | 0.007347   | 0.007347   |   0.0 |  2.57
Other   |            | 0.005582   |            |       |  1.95

Nlocal:           3596 ave        3596 max        3596 min
Histogram: 1 0 0 0 0 0 0 0 0 0
Nghost:           2387 ave        2387 max        2387 min
Histogram: 1 0 0 0 0 0 0 0 0 0
Neighs:         196481 ave      196481 max      196481 min
Histogram: 1 0 0 0 0 0 0 0 0 0

Total # of neighbors = 196481
Ave neighs/atom = 54.638765
Ave special neighs/atom = 11.430478
Neighbor list builds = 1
Dangerous builds = 0

write_data temp.data
System init for write_data ...
Generated 136 of 136 mixed pair_coeff terms from geometric mixing rule
Last active /omp style is angle_style harmonic/omp
# nvt for 200 ps
fix			1 all nvt temp 300 300 100
run			20000
Generated 136 of 136 mixed pair_coeff terms from geometric mixing rule
Last active /omp style is angle_style harmonic/omp
Per MPI rank memory allocation (min/avg/max) = 12.24 | 12.24 | 12.24 Mbytes
   Step          Temp          PotEng         Press          Volume           Lx          Density    
        25   0              8728.3496     -105.18911      729000         90             0.06203364   
       100   74.119132      7942.5037     -95.392188      729000         90             0.06203364   
       200   118.61109      7603.5056     -4.5913204      729000         90             0.06203364   
       300   162.66281      7428.4068     -214.80705      729000         90             0.06203364   
       400   209.0657       7643.2072     -30.595061      729000         90             0.06203364   
       500   241.19382      7671.943       66.304492      729000         90             0.06203364   
       600   292.2407       7378.0605      128.65573      729000         90             0.06203364   
       700   309.58414      7469.5391      67.732705      729000         90             0.06203364   
       800   323.83567      7324.7048     -56.937216      729000         90             0.06203364   
       900   310.30422      7081.3619      30.520808      729000         90             0.06203364   
      1000   291.33135      7085.5921     -76.09378       729000         90             0.06203364   
      1100   293.45804      6813.8413      13.14373       729000         90             0.06203364   
      1200   299.83326      6679.0847     -93.97754       729000         90             0.06203364   
      1300   304.14965      6694.1322      8.3651349      729000         90             0.06203364   
      1400   310.26678      6566.5962      15.510276      729000         90             0.06203364   
      1500   289.23296      6731.7555      17.955364      729000         90             0.06203364   
      1600   289.1051       6746.9306      119.31079      729000         90             0.06203364   
      1700   296.99146      6439.4553      9.1303875      729000         90             0.06203364   
      1800   298.87295      6408.9864     -50.983588      729000         90             0.06203364   
      1900   313.42834      6260.0387     -48.53685       729000         90             0.06203364   
      2000   300.3637       6357.3783     -26.130104      729000         90             0.06203364   
      2100   300.4229       5892.2296     -48.179701      729000         90             0.06203364   
      2200   297.61914      5887.8379      125.60019      729000         90             0.06203364   
      2300   297.86186      5926.0455     -105.53109      729000         90             0.06203364   
      2400   302.82274      5928.1937      17.237047      729000         90             0.06203364   
      2500   296.50659      5821.065      -65.43588       729000         90             0.06203364   
      2600   307.80234      5563.3699      67.099291      729000         90             0.06203364   
      2700   295.38623      5448.0887     -76.002391      729000         90             0.06203364   
      2800   302.8639       5511.8576     -34.013023      729000         90             0.06203364   
      2900   298.52121      5608.0835      17.708044      729000         90             0.06203364   
      3000   295.425        5472.5526      18.022317      729000         90             0.06203364   
      3100   299.62507      5480.4901     -131.07156      729000         90             0.06203364   
      3200   303.14961      5377.4793      34.670314      729000         90             0.06203364   
      3300   304.9909       5503.2189     -10.33126       729000         90             0.06203364   
      3400   309.62308      5492.4905     -19.390004      729000         90             0.06203364   
      3500   300.67072      5403.8995     -48.460807      729000         90             0.06203364   
      3600   293.30854      5240.529       10.709487      729000         90             0.06203364   
      3700   291.65084      5343.0579      65.5456        729000         90             0.06203364   
      3800   301.6312       5294.8855      2.2087925      729000         90             0.06203364   
      3900   309.88365      5339.4719      111.49547      729000         90             0.06203364   
      4000   303.83054      5394.9554      58.988773      729000         90             0.06203364   
      4100   296.55866      5167.1018     -41.973058      729000         90             0.06203364   
      4200   292.00119      5113.5306     -38.961761      729000         90             0.06203364   
      4300   292.03382      5135.1838      15.350301      729000         90             0.06203364   
      4400   302.01381      5167.2411      38.851557      729000         90             0.06203364   
      4500   311.34961      5099.2927      123.76124      729000         90             0.06203364   
      4600   305.18231      4942.9121     -74.412676      729000         90             0.06203364   
      4700   300.61492      4555.0259     -77.131228      729000         90             0.06203364   
      4800   287.3932       4902.2524      120.75143      729000         90             0.06203364   
      4900   291.7043       4873.4178      53.868595      729000         90             0.06203364   
      5000   305.11111      5032.4895     -49.845849      729000         90             0.06203364   
      5100   309.3359       4978.256       92.165515      729000         90             0.06203364   
      5200   302.12985      4811.3917      2.1438075      729000         90             0.06203364   
      5300   290.20619      4826.0608      2.592638       729000         90             0.06203364   
      5400   295.62206      4737.1849     -13.476951      729000         90             0.06203364   
      5500   294.95347      4739.6894      13.704666      729000         90             0.06203364   
      5600   311.05818      4665.9806     -27.315892      729000         90             0.06203364   
      5700   302.7041       4582.1622     -102.05961      729000         90             0.06203364   
      5800   297.87675      4760.1187     -102.39744      729000         90             0.06203364   
      5900   295.7309       4688.3896     -19.552055      729000         90             0.06203364   
      6000   297.89046      4793.1914     -65.896917      729000         90             0.06203364   
      6100   300.54317      4681.7447     -9.4925874      729000         90             0.06203364   
      6200   300.58137      4390.6403      81.866329      729000         90             0.06203364   
      6300   300.4808       4468.8224     -74.470884      729000         90             0.06203364   
      6400   297.39451      4506.5336     -43.784758      729000         90             0.06203364   
      6500   304.54084      4529.5905     -14.116653      729000         90             0.06203364   
      6600   301.23118      4377.4405      4.1527807      729000         90             0.06203364   
      6700   297.43251      4462.7773     -6.5180247      729000         90             0.06203364   
      6800   298.11315      4352.4753      38.153266      729000         90             0.06203364   
      6900   300.43433      4371.3664     -49.913533      729000         90             0.06203364   
      7000   297.53143      4608.4876      38.84397       729000         90             0.06203364   
      7100   299.60991      4337.2673     -65.755704      729000         90             0.06203364   
      7200   306.30128      4158.1056     -39.855115      729000         90             0.06203364   
      7300   300.79629      4409.0039     -36.55233       729000         90             0.06203364   
      7400   299.40505      4323.9943     -93.41505       729000         90             0.06203364   
      7500   306.76497      3999.8247      40.842999      729000         90             0.06203364   
      7600   302.67463      4176.2661     -7.6214371      729000         90             0.06203364   
      7700   298.93254      3818.0139     -97.118713      729000         90             0.06203364   
      7800   301.08642      3976.3747      23.149867      729000         90             0.06203364   
      7900   296.01029      4173.7956     -6.8723677      729000         90             0.06203364   
      8000   302.2031       4062.7342     -14.713392      729000         90             0.06203364   
      8100   305.41081      4216.0385      18.952323      729000         90             0.06203364   
      8200   299.23135      3970.9459      63.497682      729000         90             0.06203364   
      8300   301.79696      3832.833      -34.05856       729000         90             0.06203364   
      8400   298.49764      3810.3939     -1.7791234      729000         90             0.06203364   
      8500   295.70123      3959.01        3.8725903      729000         90             0.06203364   
      8600   299.14674      3761.4659     -104.50705      729000         90             0.06203364   
      8700   304.68952      3764.0924      30.079108      729000         90             0.06203364   
      8800   296.80383      4034.9286      71.119011      729000         90             0.06203364   
      8900   293.50029      4013.77        28.551867      729000         90             0.06203364   
      9000   296.22274      3945.3779      15.451346      729000         90             0.06203364   
      9100   295.60772      3834.2197     -81.782125      729000         90             0.06203364   
      9200   300.52595      3815.4127     -36.68618       729000         90             0.06203364   
      9300   299.0652       4098.8991     -6.3417606      729000         90             0.06203364   
      9400   292.68076      4019.1999      6.5649682      729000         90             0.06203364   
      9500   303.79773      3776.0582      63.059456      729000         90             0.06203364   
      9600   291.5214       3894.4694      25.478715      729000         90             0.06203364   
      9700   289.10765      3778.4526     -60.806518      729000         90             0.06203364   
      9800   301.72146      3694.0268      52.873138      729000         90             0.06203364   
      9900   298.9167       3831.4202     -18.738189      729000         90             0.06203364   
     10000   300.68796      3655.1225      52.59911       729000         90             0.06203364   
     10100   295.51529      3642.5378     -38.723055      729000         90             0.06203364   
     10200   294.06655      3776.415       63.065854      729000         90             0.06203364   
     10300   294.45922      3405.5429     -89.235984      729000         90             0.06203364   
     10400   301.8836       3509.0907     -44.967063      729000         90             0.06203364   
     10500   309.2184       3207.8776      115.51985      729000         90             0.06203364   
     10600   307.5366       3534.7907      109.61127      729000         90             0.06203364   
     10700   305.63467      3275.915       65.226006      729000         90             0.06203364   
     10800   298.77033      3537.2311     -41.027373      729000         90             0.06203364   
     10900   305.0472       3426.2623     -16.433287      729000         90             0.06203364   
     11000   299.21978      3535.9956     -22.115905      729000         90             0.06203364   
     11100   306.56542      3373.9209      40.294799      729000         90             0.06203364   
     11200   311.6961       3572.289      -15.469135      729000         90             0.06203364   
     11300   308.02167      3529.0925      50.575161      729000         90             0.06203364   
     11400   302.49732      3540.8203     -64.316993      729000         90             0.06203364   
     11500   299.17719      3550.9847     -86.900476      729000         90             0.06203364   
     11600   297.21996      3761.8603      37.360961      729000         90             0.06203364   
     11700   293.33085      3384.6267      54.90874       729000         90             0.06203364   
     11800   302.56875      3325.049       6.6579539      729000         90             0.06203364   
     11900   301.2105       3349.6881     -31.826995      729000         90             0.06203364   
     12000   297.12147      3484.8135     -87.930365      729000         90             0.06203364   
     12100   294.86363      3572.7552      10.298604      729000         90             0.06203364   
     12200   296.3805       3630.7744      36.614278      729000         90             0.06203364   
     12300   298.86513      3239.9048     -24.705674      729000         90             0.06203364   
     12400   298.612        3291.2281     -35.533998      729000         90             0.06203364   
     12500   310.86008      3575.0626      11.197901      729000         90             0.06203364   
     12600   308.44017      3377.7027      21.270039      729000         90             0.06203364   
     12700   304.47077      3233.0412     -18.741279      729000         90             0.06203364   
     12800   301.57173      3287.0452     -100.36486      729000         90             0.06203364   
     12900   299.60411      3383.1765      18.944944      729000         90             0.06203364   
     13000   291.64047      3652.2408     -41.18832       729000         90             0.06203364   
     13100   302.11252      3520.6173     -9.4492762      729000         90             0.06203364   
     13200   298.09968      3409.8688      22.670905      729000         90             0.06203364   
     13300   310.06304      3402.0872     -56.8564        729000         90             0.06203364   
     13400   299.02689      3369.7204     -115.66864      729000         90             0.06203364   
     13500   300.89135      3087.24        0.41336006     729000         90             0.06203364   
     13600   297.32793      3269.4196     -37.195825      729000         90             0.06203364   
     13700   295.53659      3413.0275      83.307728      729000         90             0.06203364   
     13800   289.2523       3374.1928     -28.035741      729000         90             0.06203364   
     13900   292.5678       3303.0519      6.8472777      729000         90             0.06203364   
     14000   305.36157      3126.1757      14.865878      729000         90             0.06203364   
     14100   302.48683      3370.538      -8.4247462      729000         90             0.06203364   
     14200   303.81237      3375.0127      78.534805      729000         90             0.06203364   
     14300   295.81938      3324.7075      8.1629385      729000         90             0.06203364   
     14400   300.49012      3021.034       22.803632      729000         90             0.06203364   
     14500   299.82258      3494.2037      37.1515        729000         90             0.06203364   
     14600   302.6483       3231.3943      60.21074       729000         90             0.06203364   
     14700   313.5827       3076.9542     -104.79588      729000         90             0.06203364   
     14800   303.91734      2859.9641     -43.041412      729000         90             0.06203364   
     14900   305.58197      3185.4474     -74.82584       729000         90             0.06203364   
     15000   296.23665      3030.9922     -64.093594      729000         90             0.06203364   
     15100   299.34534      3203.3097      60.470248      729000         90             0.06203364   
     15200   294.64264      3266.6341     -24.290415      729000         90             0.06203364   
     15300   298.32288      3278.9904     -100.62788      729000         90             0.06203364   
     15400   306.98775      3236.1009      60.694606      729000         90             0.06203364   
     15500   299.60245      3147.9155      108.14379      729000         90             0.06203364   
     15600   297.83411      3377.1674      26.751659      729000         90             0.06203364   
     15700   303.39468      3168.2287     -78.918557      729000         90             0.06203364   
     15800   301.17402      3142.0331      44.219635      729000         90             0.06203364   
     15900   300.94736      3217.2551     -36.320108      729000         90             0.06203364   
     16000   302.8129       3189.4168     -138.91335      729000         90             0.06203364   
     16100   306.47427      2991.7473     -54.750365      729000         90             0.06203364   
     16200   301.39633      3029.0075      62.782358      729000         90             0.06203364   
     16300   303.31248      3180.3524     -8.6028341      729000         90             0.06203364   
     16400   293.51365      2926.7185     -46.144559      729000         90             0.06203364   
     16500   307.48904      2887.8277     -19.090334      729000         90             0.06203364   
     16600   302.63327      3073.3031     -20.039276      729000         90             0.06203364   
     16700   307.14071      3311.4923     -82.229258      729000         90             0.06203364   
     16800   302.67592      2870.003      -49.682187      729000         90             0.06203364   
     16900   297.65536      2994.3625     -16.861548      729000         90             0.06203364   
     17000   298.5341       3036.4558      9.6590091      729000         90             0.06203364   
     17100   297.95572      2673.7974     -22.197936      729000         90             0.06203364   
     17200   306.49542      2989.1442      27.693275      729000         90             0.06203364   
     17300   305.806        3074.7175      41.187306      729000         90             0.06203364   
     17400   302.00382      3075.6524     -98.521351      729000         90             0.06203364   
     17500   300.86032      3218.1368     -54.981318      729000         90             0.06203364   
     17600   300.70492      3168.3793      60.186824      729000         90             0.06203364   
     17700   292.45144      3188.3928     -105.25045      729000         90             0.06203364   
     17800   304.45178      2983.9206      115.61456      729000         90             0.06203364   
     17900   309.65375      3103.2169     -29.075881      729000         90             0.06203364   
     18000   303.50878      3010.41        1.8303961      729000         90             0.06203364   
     18100   296.68135      3105.3643     -55.577799      729000         90             0.06203364   
     18200   297.65174      3061.0834      23.351154      729000         90             0.06203364   
     18300   303.48787      3197.8845      1.3716031      729000         90             0.06203364   
     18400   303.4563       3044.5115      41.544373      729000         90             0.06203364   
     18500   294.16871      3350.9309     -21.234015      729000         90             0.06203364   
     18600   294.84595      2941.9687      70.899979      729000         90             0.06203364   
     18700   307.21709      2903.4715      99.836151      729000         90             0.06203364   
     18800   304.46449      3040.7327     -135.42203      729000         90             0.06203364   
     18900   299.0092       3321.7745     -46.030255      729000         90             0.06203364   
     19000   300.33883      2953.313      -28.503985      729000         90             0.06203364   
     19100   297.51771      2833.6596      87.269265      729000         90             0.06203364   
     19200   297.90274      2949.912      -62.086591      729000         90             0.06203364   
     19300   308.91236      2830.0685      21.78885       729000         90             0.06203364   
     19400   302.79725      3115.7564     -83.439932      729000         90             0.06203364   
     19500   297.92761      2955.2318      53.537943      729000         90             0.06203364   
     19600   298.03582      3059.8783      58.374807      729000         90             0.06203364   
     19700   293.8002       2863.8013      96.86862       729000         90             0.06203364   
     19800   296.54162      3098.4153      26.385341      729000         90             0.06203364   
     19900   300.21825      2981.6263     -46.969283      729000         90             0.06203364   
     20000   304.93898      2925.3128     -42.610903      729000         90             0.06203364   
     20025   300.34246      2887.5666     -25.537856      729000         90             0.06203364   
Loop time of 68.7842 on 4 procs for 20000 steps with 3596 atoms

Performance: 25.122 ns/day, 0.955 hours/ns, 290.764 timesteps/s
31.8% CPU use with 1 MPI tasks x 4 OpenMP threads

MPI task timing breakdown:
Section |  min time  |  avg time  |  max time  |%varavg| %total
---------------------------------------------------------------
Pair    | 46.99      | 46.99      | 46.99      |   0.0 | 68.32
Bond    | 6.4956     | 6.4956     | 6.4956     |   0.0 |  9.44
Neigh   | 6.0806     | 6.0806     | 6.0806     |   0.0 |  8.84
Comm    | 0.53389    | 0.53389    | 0.53389    |   0.0 |  0.78
Output  | 0.055376   | 0.055376   | 0.055376   |   0.0 |  0.08
Modify  | 8.3216     | 8.3216     | 8.3216     |   0.0 | 12.10
Other   |            | 0.3067     |            |       |  0.45

Nlocal:           3596 ave        3596 max        3596 min
Histogram: 1 0 0 0 0 0 0 0 0 0
Nghost:            823 ave         823 max         823 min
Histogram: 1 0 0 0 0 0 0 0 0 0
Neighs:         516738 ave      516738 max      516738 min
Histogram: 1 0 0 0 0 0 0 0 0 0

Total # of neighbors = 516738
Ave neighs/atom = 143.698
Ave special neighs/atom = 11.430478
Neighbor list builds = 1122
Dangerous builds = 0
unfix			1

# npt for 1000ps
fix			1 all npt temp 300 300 100 iso 1 1 100
run			100000
Generated 136 of 136 mixed pair_coeff terms from geometric mixing rule
Last active /omp style is angle_style harmonic/omp
Per MPI rank memory allocation (min/avg/max) = 13.77 | 13.77 | 13.77 Mbytes
   Step          Temp          PotEng         Press          Volume           Lx          Density    
     20025   300.34246      2887.5666     -25.537856      729000         90             0.06203364   
     20100   298.84296      3161.7832     -19.204838      724938.84      89.832563      0.062381157  
     20200   299.18284      3021.7035     -6.87002        723618         89.777971      0.062495023  
     20300   294.68066      2710.1844     -21.49112       725311.17      89.847939      0.062349134  
     20400   299.40045      2574.4073     -5.9235073      731290.28      90.094152      0.06183936   
     20500   302.35091      2843.8046      5.3134521      732770.62      90.154903      0.061714433  
     20600   300.30692      3043.5535      42.326106      736548.1       90.309555      0.061397923  
     20700   295.40647      2984.3554      50.725827      738017.96      90.36959       0.061275641  
     20800   301.51452      2589.2698     -6.0254086      750085.74      90.859492      0.060289805  
     20900   295.80458      2609.1333     -80.332079      749295.38      90.827568      0.060353399  
     21000   304.06647      2690.9182      13.157029      748490.2       90.795022      0.060418324  
     21100   305.7283       2916.5148     -35.62248       748174.75      90.782265      0.060443798  
     21200   305.85126      2796.5277      35.579308      751179.05      90.903615      0.060202056  
     21300   302.70865      2791.5731      24.042686      749771.35      90.846796      0.060315086  
     21400   299.70063      2815.9899     -27.78929       739999.66      90.450403      0.061111546  
     21500   303.34559      2665.83       -21.481994      741115.17      90.49583       0.061019563  
     21600   303.78032      2600.1614      71.689758      734235.57      90.214942      0.0615913    
     21700   293.35994      2739.7966     -57.60746       735289.46      90.258085      0.061503022  
     21800   297.26012      2920.5646      22.194027      726584.21      89.900475      0.062239893  
     21900   293.70694      2667.3369      8.5177199      724470.97      89.813233      0.062421443  
     22000   300.58486      2697.2288      34.698302      725293.75      89.84722       0.062350631  
     22100   299.26788      2918.2965      9.2722131      715976         89.460809      0.063162066  
     22200   303.28453      2952.4432      32.436484      713552.31      89.359749      0.063376606  
     22300   300.0602       3257.6828      6.0836878      704873.7       88.995989      0.064156917  
     22400   294.48804      3038.7276      1.4337737      696449.82      88.64004       0.064932924  
     22500   292.42259      2836.0157     -36.417357      697108.36      88.66797       0.064871584  
     22600   297.11112      2871.3779     -29.077022      689446.45      88.341923      0.06559251   
     22700   295.99761      2865.9068      71.180277      677119.17      87.812236      0.066786654  
     22800   301.83511      2654.8373      56.503638      670780.24      87.537355      0.067417793  
     22900   297.49202      2744.9043     -33.162434      664788.98      87.275954      0.068025381  
     23000   297.87805      2876.815       20.691866      657774.13      86.967889      0.068750839  
     23100   296.32179      2909.8322      6.8052391      648773.81      86.569406      0.069704607  
     23200   296.93774      2550.2669     -75.0534        644076.63      86.359976      0.070212955  
     23300   304.98311      2665.2172     -37.329288      633498.85      85.884596      0.071385328  
     23400   298.73158      2764.2414     -65.413196      624548.8       85.478218      0.07240831   
     23500   300.2831       2696.9464     -7.7459311      617784.84      85.168516      0.07320109   
     23600   304.76627      2708.4539      14.917721      613114.99      84.953377      0.073758632  
     23700   306.77716      2659.9278     -5.3459245      607958.4       84.714539      0.074384241  
     23800   298.87691      2766.4862      42.211645      604686.38      84.562289      0.074786741  
     23900   303.28603      2597.3421      38.932106      599424.07      84.316271      0.07544329   
     24000   302.02237      2654.313       72.3432        592786.49      84.003897      0.076288047  
     24100   297.4939       2748.5393     -177.71647      586101.59      83.68693       0.077158165  
     24200   296.39283      2653.3097      48.896535      576697.51      83.236924      0.078416367  
     24300   310.56122      2310.2854     -131.85661      573979.16      83.105935      0.078787744  
     24400   309.61393      2311.0475      44.980293      569684.86      82.89816       0.079381649  
     24500   302.16891      2475.3935     -64.717442      561922.01      82.519898      0.080478292  
     24600   299.78049      2366.6658     -45.814566      555676.56      82.213037      0.081382816  
     24700   302.30604      2494.2476     -48.730421      554132.63      82.136825      0.081609566  
     24800   302.67712      2202.8701      7.4397323      544146.01      81.640405      0.083107333  
     24900   296.87753      2211.5137      68.393756      539211.83      81.39289       0.083867824  
     25000   296.84205      2133.6601      10.647114      535335.87      81.197399      0.084475048  
     25100   296.45704      2307.3332      63.276087      531089.79      80.982153      0.085150429  
     25200   300.92385      2617.1823      31.971568      532363.91      81.046861      0.084946637  
     25300   299.4046       2520.1914      83.134773      525354.45      80.689583      0.086080023  
     25400   302.13136      2640.7708     -17.918501      520707.57      80.450972      0.086848216  
     25500   299.91397      2562.7498      71.912088      514963.15      80.154034      0.087817009  
     25600   302.60106      2321.1463     -65.06119       509345.29      79.861494      0.088785593  
     25700   296.42694      2441.9997     -33.728945      505170.95      79.642727      0.089519249  
     25800   298.77178      2427.1677      0.19305969     497380.45      79.231201      0.090921392  
     25900   303.13901      2641.4904      21.999331      494577.21      79.082071      0.091436731  
     26000   302.79142      2643.5906     -156.57178      487775.75      78.717882      0.09271171   
     26100   304.4609       2636.896       17.81722       478822.84      78.233294      0.09444521   
     26200   299.16574      2446.8218      115.23112      470072.96      77.753824      0.0962032    
     26300   301.20233      2561.0444      105.96224      464761.39      77.459855      0.097302669  
     26400   300.24992      2292.5828     -140.62281      457827.41      77.072704      0.098776356  
     26500   304.01958      2285.9533     -127.36765      454406.12      76.880239      0.099520058  
     26600   304.89644      2792.8903      18.155579      448743.27      76.55954       0.10077594   
     26700   308.82404      2377.2635     -32.88843       443367.85      76.252613      0.10199775   
     26800   295.62616      2464.6165     -8.6847224      439557.84      76.033563      0.10288185   
     26900   299.75208      2470.2391     -73.62853       433069.83      75.657614      0.10442317   
     27000   299.82313      2365.9849     -41.515053      429309.25      75.437985      0.10533787   
     27100   302.33142      2317.0559     -90.793232      422204.93      75.019547      0.10711036   
     27200   302.70365      2336.5705     -5.496097       413239.11      74.484711      0.10943428   
     27300   299.18305      2463.9525     -38.568963      410233.94      74.303715      0.11023594   
     27400   295.59731      2415.9658      80.85921       403725.6       73.908678      0.11201302   
     27500   293.23739      2466.7826     -79.417279      399443.68      73.646456      0.11321377   
     27600   298.69272      2437.4403     -61.529988      396105.29      73.440712      0.11416794   
     27700   304.70302      2561.7719      104.46388      390342.84      73.082838      0.11585335   
     27800   307.15329      2438.833      -140.80633      388507.35      72.968107      0.11640069   
     27900   302.4989       2722.7677      104.22576      383153.67      72.631386      0.11802712   
     28000   296.94126      2665.0441     -25.663504      379128.91      72.376176      0.11928007   
     28100   298.13952      2427.0761      149.85758      374220.97      72.062508      0.12084444   
     28200   301.04966      2303.3282      127.11334      372194.47      71.932194      0.12150241   
     28300   298.64488      2574.923      -162.71792      369070.1       71.730351      0.12253099   
     28400   295.35863      2579.4187      156.50745      365829.64      71.519801      0.12361635   
     28500   300.62653      2646.6903      14.954842      363067.21      71.339327      0.12455689   
     28600   300.22839      2390.0933      0.43198956     359384.5       71.097301      0.12583326   
     28700   299.4574       2663.9163     -159.67767      355444.64      70.836537      0.12722803   
     28800   300.35308      2477.8564      10.153895      348653.1       70.382471      0.12970636   
     28900   300.07514      2426.8458      141.18511      341775.92      69.91663       0.1323163    
     29000   290.34189      2311.3759      126.60152      335427.9       69.481053      0.1348204    
     29100   299.11558      2388.6032     -132.07023      331368.16      69.199601      0.13647215   
     29200   301.94537      2532.3137      22.826976      325758.77      68.806907      0.13882212   
     29300   299.90972      2353.3252     -91.501217      321546.62      68.509056      0.14064064   
     29400   298.90666      2498.2476      94.311192      314785.99      68.025508      0.14366117   
     29500   295.21841      2519.6753      98.583403      311191.37      67.765583      0.14532062   
     29600   296.3132       2295.4981      24.776676      307894.36      67.525412      0.14687675   
     29700   303.92135      2219.3758     -178.56168      303667.35      67.214974      0.14892126   
     29800   303.9521       2446.7312     -92.929303      297899.84      66.786716      0.15180446   
     29900   302.96606      2430.8446      102.17329      293176.15      66.431829      0.15425035   
     30000   300.11594      2520.4077      128.22876      288000.63      66.038593      0.15702231   
     30100   296.63672      2104.5439     -147.94661      284120.24      65.74066       0.15916685   
     30200   298.43777      2066.417       92.692459      280502.33      65.460426      0.16121978   
     30300   301.73759      1941.0357     -99.752695      276757.41      65.167804      0.16340131   
     30400   306.08509      2011.1998      207.5142       273065.27      64.87671       0.16561068   
     30500   306.8088       2256.8567     -19.178077      269564.59      64.598279      0.16776136   
     30600   302.10981      2156.6589     -66.654409      264931.57      64.226053      0.17069511   
     30700   299.13142      2016.8003     -107.43892      258234.43      63.680243      0.17512198   
     30800   302.94233      2173.9105      97.565444      252907.73      63.239345      0.17881037   
     30900   301.96417      1799.1025      70.554644      249408.82      62.946357      0.18131886   
     31000   302.08504      1915.242       31.130071      243516.56      62.446701      0.18570616   
     31100   302.12474      2443.201       219.21782      239491.88      62.100763      0.18882696   
     31200   296.54373      2109.5753      127.32257      237033.06      61.887505      0.19078572   
     31300   294.36694      1941.4586     -5.7654437      233498.31      61.578331      0.19367388   
     31400   300.81754      1869.4629     -63.276427      228710.97      61.154581      0.19772783   
     31500   305.54022      1757.4274     -15.161194      223998.35      60.73163       0.20188775   
     31600   304.09366      1647.3934     -113.90177      223111.84      60.651406      0.20268993   
     31700   288.74066      1981.7847     -24.391719      218814.19      60.25945       0.20667089   
     31800   289.68405      2158.0455      90.092412      215089.47      59.915573      0.21024983   
     31900   296.34584      1840.789       137.71941      210460.32      59.482618      0.21487434   
     32000   301.91149      1997.9505      150.22736      205946.89      59.05433       0.21958342   
     32100   302.16229      2085.2602      270.18264      203781.25      58.846604      0.221917     
     32200   300.70921      2093.4837     -205.51968      201260.42      58.602947      0.22469656   
     32300   295.3121       1851.9904      144.50642      198596.61      58.343249      0.22771045   
     32400   291.25615      2040.1643      27.823092      196528.8       58.14005       0.23010634   
     32500   297.57731      1992.0711      26.223097      193793.2       57.869026      0.23335455   
     32600   301.70295      1612.7614      169.88678      190848.04      57.574375      0.23695567   
     32700   300.51386      1751.3012     -68.000973      187277.61      57.213075      0.2414732    
     32800   301.45923      1559.6295     -307.37091      184755.53      56.955082      0.24476953   
     32900   296.05002      2059.2197      120.58983      181886.43      56.658721      0.24863055   
     33000   299.73764      1894.3224      47.874449      177213.54      56.169294      0.25518662   
     33100   300.11141      2030.2489      141.40243      173871.16      55.813919      0.26009215   
     33200   301.95839      1976.8023     -114.60231      170774.3       55.480561      0.26480871   
     33300   299.50514      1817.1604     -222.81857      167960.59      55.174169      0.26924484   
     33400   296.4848       1859.1199      403.33799      164434.64      54.78535       0.27501823   
     33500   294.03657      1919.5471     -189.56897      161375.46      54.443474      0.28023172   
     33600   301.08947      1935.2115     -212.81644      157482.34      54.002096      0.28715933   
     33700   302.03686      1886.2265     -174.13496      154578.5       53.668117      0.29255378   
     33800   297.94306      1780.463      -52.490212      151981.61      53.36588       0.29755261   
     33900   295.43411      1536.4429     -30.486429      148204.8       52.920113      0.30513534   
     34000   294.89328      1639.7982      292.84902      144163.05      52.434603      0.31369012   
     34100   296.58902      1681.0876      31.372214      142391.37      52.21892       0.31759315   
     34200   302.71057      1730.5816      296.01061      141013.96      52.049996      0.32069536   
     34300   301.88647      1816.0214     -565.05875      139612.94      51.877044      0.32391356   
     34400   305.45725      1675.8969      4.0105941      136785.92      51.524502      0.33060802   
     34500   306.87767      1959.3824      257.79817      133878.57      51.156838      0.33778761   
     34600   305.72447      2017.544       146.29305      131405.31      50.839855      0.34414532   
     34700   303.0462       1516.6167     -31.119142      130149.31      50.677357      0.34746648   
     34800   302.75513      1666.127      -254.07058      127736.21      50.362198      0.35403057   
     34900   302.85893      1601.9921     -19.481466      126244.97      50.165449      0.35821246   
     35000   293.64199      1873.9182     -217.41292      124835.97      49.978119      0.36225556   
     35100   299.8093       1762.0862     -294.35211      124803.36      49.973768      0.36235019   
     35200   301.91377      2035.2283     -168.12091      123225.1       49.762217      0.36699118   
     35300   304.82962      1557.0613     -56.417721      121761.02      49.564351      0.37140395   
     35400   299.78833      1593.5558      252.65535      120784.75      49.431528      0.3744059    
     35500   293.02733      1903.6188      436.39504      118990.39      49.185523      0.38005191   
     35600   301.87982      1979.947       72.930843      117695.69      49.006481      0.38423263   
     35700   295.37051      1915.5852      251.00075      116766.07      48.877115      0.38729163   
     35800   301.01265      1997.3269     -357.93782      115987.69      48.768265      0.38989071   
     35900   299.82686      1837.1603     -561.1663       116128.08      48.787933      0.38941936   
     36000   304.3879       2019.6376     -12.106621      115578.23      48.710809      0.391272     
     36100   301.65759      1892.2453      197.48749      115518.26      48.702383      0.3914751    
     36200   303.81416      1894.3103      181.865        114377.62      48.541555      0.39537912   
     36300   301.77549      1994.2214      358.0906       112540.05      48.280196      0.40183495   
     36400   303.00589      1863.5302     -491.74276      111974.87      48.19924       0.40386315   
     36500   296.92854      1480.8242      60.945799      111342.56      48.108344      0.40615666   
     36600   297.95333      1575.7759     -275.1042       111522.69      48.134272      0.40550067   
     36700   295.62049      1672.9965      351.20265      110737.85      48.021092      0.40837458   
     36800   299.56311      1751.8935     -537.6617       110528.53      47.990816      0.40914796   
     36900   305.50706      1785.4805     -176.62414      110131.93      47.933347      0.41062136   
     37000   303.59436      1804.536       165.9677       109587.88      47.854287      0.41265988   
     37100   290.62826      1771.644      -263.48791      109896.15      47.899116      0.41150233   
     37200   301.03175      1823.8381      671.86774      109433.16      47.831754      0.41324334   
     37300   295.14474      2211.7805     -252.05948      109455.16      47.83496       0.41316026   
     37400   299.66215      1977.6756     -43.837649      108704.43      47.725346      0.41601362   
     37500   300.06652      1914.2163     -45.425433      108056.85      47.630386      0.41850677   
     37600   303.03824      1772.4974     -504.72503      107642.85      47.569478      0.42011639   
     37700   302.36694      1934.0334      576.93072      107184.5       47.501865      0.4219129    
     37800   296.51559      1781.2574     -494.64095      106950.44      47.467263      0.42283625   
     37900   293.57023      1778.5376      137.00443      105261.9       47.216131      0.42961911   
     38000   304.78513      2098.0156      118.06002      105055.28      47.185218      0.43046405   
     38100   304.58955      1494.0367     -89.648018      104512.07      47.10375       0.43270145   
     38200   298.87937      1595.678       18.06321       103911.26      47.013314      0.43520331   
     38300   296.99168      1916.3131     -357.83006      102681.18      46.827066      0.44041688   
     38400   300.30953      1856.5983      602.43184      102086.77      46.736533      0.44298123   
     38500   305.3948       1848.0462      371.79191      101429.54      46.63602       0.44585163   
     38600   309.54996      1789.2206     -84.180081      100337.91      46.468111      0.45070227   
     38700   304.3763       1754.8459     -461.75739      99822.293      46.388377      0.4530303    
     38800   299.20645      1636.1977     -151.44383      98896.874      46.244582      0.45726949   
     38900   301.49137      1851.0504      108.01801      98200.437      46.135774      0.46051245   
     39000   296.63157      1421.0161      444.53251      98108.825      46.121422      0.46094246   
     39100   301.15783      1817.5693      490.41043      97682.122      46.05446       0.46295599   
     39200   304.65583      1685.0219     -711.76939      98094.105      46.119115      0.46101163   
     39300   297.59542      1770.5979     -26.264845      97539.14       46.031978      0.46363463   
     39400   302.01495      1536.6273      820.79104      96799.892      45.915391      0.46717535   
     39500   297.16296      1413.3329     -304.28119      96773.99       45.911296      0.46730039   
     39600   289.52425      1502.9068     -227.95399      96741.154      45.906102      0.467459     
     39700   301.47903      1789.8158     -35.871159      96112.665      45.806475      0.47051576   
     39800   302.09346      1720.7268      518.27054      96481.993      45.865073      0.46871465   
     39900   302.86149      1806.5512      300.00873      96053.561      45.797084      0.47080528   
     40000   306.45446      1536.8992      674.02314      95862.56       45.766708      0.47174333   
     40100   299.39863      2258.02       -76.903644      95126.964      45.649344      0.47539122   
     40200   298.46139      2016.4293      75.623745      94311.551      45.518537      0.47950143   
     40300   296.99779      2144.4667     -456.15683      93766.12       45.430618      0.48229066   
     40400   299.44164      1901.5745      384.38344      92887.479      45.288269      0.48685274   
     40500   309.04838      2013.5888      67.971199      92885.254      45.287908      0.4868644    
     40600   304.24051      2268.3802      155.59991      92450.064      45.217069      0.48915622   
     40700   299.91411      1668.3412      454.91699      92268.738      45.187487      0.49011751   
     40800   291.55116      1766.6752     -95.897245      92298.024      45.192268      0.48996199   
     40900   298.67613      1617.8812     -223.10711      92066.073      45.154379      0.4911964    
     41000   295.98599      1718.8846     -805.27631      91961.298      45.137243      0.49175604   
     41100   308.44037      1832.5287      2.3805936      90902.996      44.963426      0.49748111   
     41200   301.57203      1642.2197      462.18498      91411.428      45.047099      0.49471411   
     41300   298.65813      1995.4534     -551.42016      91246.295      45.019957      0.49560942   
     41400   301.59908      1766.7071      437.98232      90970.793      44.974602      0.49711036   
     41500   301.44957      1735.2531     -374.16621      91038.943      44.98583       0.49673823   
     41600   301.02554      1819.0271     -1057.5502      90700.934      44.930086      0.49858939   
     41700   306.39054      2065.3373      692.68025      89751.919      44.772834      0.50386135   
     41800   305.375        1559.6861      301.78747      89274.329      44.693277      0.50655686   
     41900   294.93051      1707.6949     -313.89752      88794.551      44.61307       0.5092939    
     42000   297.98637      1665.9807      118.47757      88002.62       44.480043      0.51387702   
     42100   300.65743      1806.1527      185.63965      87218.992      44.347624      0.51849399   
     42200   303.2632       1757.8975      114.10489      86539.663      44.232186      0.52256412   
     42300   303.40302      1962.25        19.526244      86924.55       44.297663      0.5202503    
     42400   301.23212      2082.6485      26.160916      86538.738      44.232028      0.52256971   
     42500   307.6529       1390.283      -876.32403      86086.997      44.154929      0.52531189   
     42600   295.31224      1666.3214     -47.475245      85540.252      44.061253      0.52866952   
     42700   298.38844      1701.3427     -552.86522      85705.785      44.089656      0.52764844   
     42800   298.53247      1807.0665      1178.2642      85455.886      44.046763      0.52919144   
     42900   307.29466      1649.9171      663.35058      85091.535      43.984074      0.53145737   
     43000   303.64775      1738.8205     -1058.3889      85144.497      43.993197      0.53112679   
     43100   299.38591      1501.0882      961.85302      84922.195      43.954877      0.53251713   
     43200   295.35661      1939.6577     -111.06844      84629.584      43.904335      0.53435833   
     43300   299.2145       1462.0373     -83.584601      84134.407      43.818538      0.53750332   
     43400   302.97703      1757.5785     -890.71789      84439.339      43.871412      0.53556226   
     43500   306.60956      2227.9774      432.18588      84530.361      43.88717       0.53498557   
     43600   294.02336      2011.705      -365.20025      84662.74       43.910068      0.53414906   
     43700   294.92093      1497.3421     -31.267597      84333.571      43.853086      0.53623395   
     43800   299.69426      1657.1456      647.09741      84551.388      43.890808      0.53485253   
     43900   301.97324      1928.6829      452.98978      84251.966      43.838937      0.53675333   
     44000   299.4262       1968.8563     -191.62942      83746.407      43.751075      0.53999359   
     44100   297.87533      1943.5669      39.99588       84363.665      43.858302      0.53604266   
     44200   301.40384      1720.7139     -439.95223      85159.414      43.995766      0.53103376   
     44300   288.99206      1713.1006      208.77436      84396.174      43.863935      0.53583618   
     44400   297.95365      1764.7173     -514.58728      84668.979      43.911146      0.53410971   
     44500   307.56773      1763.4031      319.85228      84637.524      43.905708      0.5343082    
     44600   308.89502      1930.1688      561.16197      85023.566      43.97236       0.53188223   
     44700   300.78918      1905.5154      198.84725      84871.738      43.94617       0.53283372   
     44800   301.34553      1790.9141      220.88071      85419.739      44.040551      0.52941538   
     44900   300.0387       1943.9134     -386.50482      86173.665      44.169741      0.52478357   
     45000   296.88543      1860.7686     -470.65724      86607.307      44.243707      0.52215599   
     45100   306.03803      2010.3286      120.18104      86560.213      44.235687      0.52244007   
     45200   308.41506      1758.0583     -498.25726      86961.313      44.303907      0.52003037   
     45300   301.07758      1835.1966     -316.29113      86319.988      44.194727      0.52389399   
     45400   300.99297      1869.4028     -162.7119       86458.549      44.218362      0.52305439   
     45500   291.91459      1828.7866      537.58561      86420.655      44.211901      0.52328374   
     45600   299.69968      1867.7894      458.68757      85886.248      44.12058       0.52653975   
     45700   309.2648       1793.3986      967.83321      85749.454      44.097143      0.52737972   
     45800   300.85157      1911.076      -520.29648      85285.158      44.01741       0.5302508    
     45900   304.40359      1738.1536     -135.40219      84832.532      43.939402      0.53307997   
     46000   303.48492      1817.1209     -58.925277      84981.123      43.965042      0.53214787   
     46100   299.50297      1667.6921      6.0360074      84674.049      43.912023      0.53407773   
     46200   295.12903      1514.8375      809.56983      84369.489      43.859311      0.53600566   
     46300   292.27141      1306.3292     -1309.4007      83944.519      43.785547      0.5387192    
     46400   298.12128      1755.432      -1124.8526      83339.561      43.680111      0.54262973   
     46500   304.67311      1927.2689      1208.22        82596.349      43.549879      0.54751238   
     46600   305.80344      1635.7892     -230.56914      82616.294      43.553384      0.5473802    
     46700   300.14982      1821.0617      449.31295      82135.533      43.468738      0.55058416   
     46800   294.14016      1928.436      -902.73781      82702.538      43.568534      0.54680938   
     46900   294.41748      2109.7006      874.64397      82117.949      43.465635      0.55070205   
     47000   298.29839      1721.5781     -30.116076      82233.016      43.485928      0.54993147   
     47100   299.43529      1562.1616     -563.34226      82516.829      43.535898      0.54804      
     47200   302.10572      1649.3465      239.46134      81987.958      43.442688      0.55157519   
     47300   303.68515      1919.9028      317.63968      81898.789      43.426933      0.55217573   
     47400   291.84581      1785.8096     -339.71204      81747.909      43.400249      0.55319486   
     47500   294.82856      1242.2579     -165.39774      81694.719      43.390834      0.55355504   
     47600   303.49618      1938.437       300.05797      81885.966      43.424666      0.5522622    
     47700   302.06131      1800.082      -409.72445      81273.142      43.316067      0.55642642   
     47800   303.78346      1886.8844      329.39702      81198.953      43.302883      0.55693481   
     47900   305.17747      1846.5684      616.38227      80985.513      43.264907      0.55840263   
     48000   294.91183      1837.7083      729.67553      80637.512      43.202848      0.56081248   
     48100   298.56677      1657.2957      31.311512      80808.262      43.23332       0.55962747   
     48200   293.65567      1566.4594      137.82691      80535.014      43.184535      0.56152624   
     48300   301.59453      1544.6498     -334.02032      80615.547      43.198925      0.56096528   
     48400   301.0405       1686.954      -218.63912      80205.822      43.125615      0.56383093   
     48500   301.47803      1757.3997      159.70519      79973.928      43.084012      0.56546583   
     48600   297.37977      1559.8529     -749.22851      80013.536      43.091124      0.56518591   
     48700   297.76669      1552.0558      595.32953      79770.882      43.047519      0.56690515   
     48800   292.82451      1798.9201     -462.41604      80019.433      43.092182      0.56514426   
     48900   305.5382       1745.2064     -406.30487      80027.32       43.093598      0.56508857   
     49000   303.97246      1885.8518      1079.7943      80135.021      43.112921      0.56432909   
     49100   301.89203      1655.0628     -136.47431      80945.5        43.257781      0.55867866   
     49200   296.9646       1352.4312      490.59142      80771.089      43.22669       0.55988503   
     49300   291.6851       1368.7576     -279.08412      81148.877      43.293979      0.55727849   
     49400   296.25288      1375.5817     -632.03963      81239.515      43.310092      0.55665674   
     49500   304.83381      1482.8401      245.36087      81299.749      43.320793      0.55624432   
     49600   303.88032      1573.1948      497.68822      81633.605      43.380011      0.55396945   
     49700   300.93684      1235.1702     -235.70769      82276.907      43.493663      0.54963811   
     49800   297.58376      1215.7058      344.56378      82064.043      43.456122      0.5510638    
     49900   299.02193      1187.8242     -294.21819      81754.535      43.401421      0.55315003   
     50000   298.92961      1446.4384     -1258.1279      81866.741      43.421268      0.55239189   
     50100   307.43323      1532.8393      374.05968      80831.871      43.23753       0.55946402   
     50200   305.17197      1930.5039      101.33437      80486.401      43.175844      0.5618654    
     50300   291.89476      1586.6956      111.22967      80236.128      43.131046      0.56361797   
     50400   301.5373       1260.2653      484.42923      80230.981      43.130123      0.56365412   
     50500   298.95981      1689.8461     -309.88726      80193.149      43.123343      0.56392004   
     50600   302.88901      1780.779      -528.95136      80195.78       43.123815      0.56390154   
     50700   303.0048       1733.483       246.67363      79441.711      42.988227      0.56925415   
     50800   298.61521      1829.3313     -376.95807      79347.655      42.971254      0.56992892   
     50900   300.93442      1645.2484     -459.92726      79305.994      42.963733      0.57022831   
     51000   299.40518      1800.8394     -202.11302      79659.729      43.027516      0.56769617   
     51100   298.69571      2047.2032      733.9131       79306.4        42.963806      0.57022539   
     51200   298.41727      1831.879      -561.27186      79679.383      43.031054      0.56755615   
     51300   300.39807      1826.5439      492.11066      79401.989      42.98106       0.56953893   
     51400   301.37203      1632.1039     -442.03578      79662.702      43.028051      0.56767499   
     51500   302.2574       1624.4375     -707.75292      80143.109      43.114372      0.56427214   
     51600   295.16952      1229.0364      254.31803      79782.659      43.049638      0.56682147   
     51700   300.14942      1512.8045      233.95899      79284.208      42.959798      0.57038501   
     51800   298.45528      1600.3314      772.31841      79345.77       42.970914      0.56994246   
     51900   307.67762      1198.0693      274.35853      79592.156      43.015346      0.56817814   
     52000   304.63458      1120.2745     -66.651328      79816.339      43.055695      0.56658228   
     52100   299.34581      1315.0962      216.41971      79849.282      43.061617      0.56634853   
     52200   303.61995      1529.8047     -358.08623      80370.503      43.15511       0.56267563   
     52300   297.03168      1791.697       637.32197      80475.641      43.17392       0.56194052   
     52400   304.42861      1551.638       100.39336      80721.73       43.217883      0.56022738   
     52500   306.5976       1544.7476     -22.988419      80756.921      43.224162      0.55998325   
     52600   308.00944      1622.0887      216.08133      81045.955      43.275668      0.55798619   
     52700   306.48513      1539.1794      355.72495      80974.496      43.262946      0.5584786    
     52800   303.43492      1473.3557      146.58682      81093.965      43.284212      0.55765584   
     52900   299.78956      1282.0106      684.90122      81319.038      43.324219      0.55611237   
     53000   302.71254      1365.5983     -830.04015      81378.156      43.334715      0.55570838   
     53100   302.45254      1784.6532      517.74987      80583.063      43.193121      0.56119142   
     53200   308.25785      1333.4645     -200.04332      80731.968      43.21971       0.56015634   
     53300   302.29842      1438.0145     -670.47982      80182.728      43.121475      0.56399333   
     53400   297.55945      1287.9881      585.90882      80077.552      43.102613      0.56473409   
     53500   295.68921      1300.6677     -393.31987      79626.544      43.02154       0.56793277   
     53600   302.17905      1867.4375      585.85647      79631.254      43.022389      0.56789918   
     53700   303.83243      1627.2612     -638.9754       79941.025      43.078103      0.56569857   
     53800   305.11257      1390.1072     -490.85824      79770.972      43.047536      0.56690451   
     53900   308.94272      1332.186       211.88346      79759.337      43.045443      0.5669872    
     54000   301.95576      1539.8137     -119.90931      80198.6        43.12432       0.56388171   
     54100   298.80719      1650.8217     -384.42759      79963.351      43.082113      0.56554063   
     54200   298.91046      1482.7244      48.541729      79631.102      43.022361      0.56790026   
     54300   299.87465      1694.4828      65.415278      79996.725      43.088106      0.56530469   
     54400   305.61961      1768.0683      568.34015      80746.733      43.222345      0.56005391   
     54500   308.41001      1374.332      -623.71701      81035.816      43.273863      0.558056     
     54600   302.07249      1334.7131     -612.1181       81353.287      43.3303        0.55587826   
     54700   305.28596      1244.1353      255.43167      81568.076      43.368401      0.5544145    
     54800   298.48068      1678.2692      92.459219      81476.303      43.35213       0.55503897   
     54900   297.60109      1635.7909     -203.96498      80975.903      43.263196      0.5584689    
     55000   293.30128      1761.8761     -406.54306      80704.457      43.2148        0.56034728   
     55100   292.03787      1560.1776     -817.78403      80517.978      43.18149       0.56164505   
     55200   298.66298      1819.0025      679.36726      79877.625      43.066712      0.56614758   
     55300   299.30209      1989.0714      183.87606      79598.233      43.016441      0.56813476   
     55400   299.31802      1840.5104     -386.89609      79596.991      43.016217      0.56814363   
     55500   303.988        1531.7482     -253.73906      79681.838      43.031496      0.56753866   
     55600   303.87245      1467.2606     -410.71128      79194.934      42.943668      0.57102799   
     55700   296.23494      1849.5856      574.66546      79252.393      42.954051      0.57061398   
     55800   298.99247      1742.0231     -707.9143       79562.967      43.010087      0.56838659   
     55900   294.92093      2099.7584      741.61133      79781.686      43.049463      0.56682837   
     56000   301.80392      1441.1554      190.06031      80077.822      43.102661      0.56473219   
     56100   293.54451      1639.477      -225.3677       80287.884      43.140318      0.56325464   
     56200   302.46225      1313.0884     -188.41526      80485.916      43.175757      0.56186878   
     56300   294.71703      1213.0119     -746.73999      80403.649      43.161042      0.56244367   
     56400   301.36455      1469.1728      504.84706      79811.753      43.05487       0.56661483   
     56500   304.1409       1284.609       262.67317      80168.639      43.118949      0.56409244   
     56600   306.28593      1532.1568     -478.05239      80356.332      43.152574      0.56277486   
     56700   301.15099      1742.6582      214.10681      80262.353      43.135744      0.56343381   
     56800   298.07074      1505.6362      389.13711      80374.598      43.155843      0.56264696   
     56900   297.83333      1147.0362      346.61988      80308.579      43.144024      0.56310949   
     57000   293.81125      1510.9065     -378.49325      80166.038      43.118483      0.56411075   
     57100   298.15711      1682.9271      341.30463      80271.122      43.137315      0.56337226   
     57200   302.17194      1341.1621      371.48343      80395.838      43.159644      0.56249832   
     57300   299.10034      1213.8336     -53.611749      80901.713      43.24998       0.55898104   
     57400   294.73568      1130.8341     -18.101292      81193.413      43.301898      0.55697281   
     57500   302.85226      1505.2371     -222.00206      80985.753      43.26495       0.55840098   
     57600   304.98087      1495.2438      697.198        80617.54       43.19928       0.56095142   
     57700   300.66886      1482.125       695.80829      80876.612      43.245506      0.55915453   
     57800   300.86526      1322.2842     -839.83813      81164.784      43.296808      0.55716927   
     57900   297.8123       1474.5903      194.58418      80748.612      43.22268       0.56004087   
     58000   302.88408      1190.6917     -455.38683      80722.696      43.218055      0.56022068   
     58100   303.57808      1380.7679     -71.758108      80768.085      43.226154      0.55990585   
     58200   302.74981      1420.2641     -83.07599       81021.055      43.271236      0.55815767   
     58300   303.46367      1628.164       612.40848      80470.268      43.172959      0.56197804   
     58400   297.50191      1590.1465      332.18116      80666.182      43.207967      0.56061317   
     58500   297.18997      1648.2919      352.95367      79919.737      43.074279      0.56584925   
     58600   301.5085       1711.3349     -427.96539      79787.719      43.050548      0.56678552   
     58700   306.54031      1487.4345     -663.11045      79685.961      43.032238      0.5675093    
     58800   303.12617      1708.0895      192.90764      79450.609      42.989832      0.56919039   
     58900   299.65877      1446.4345     -346.24369      79145.316      42.934697      0.57138597   
     59000   295.06863      1602.2735      154.49808      78263.735      42.774689      0.5778222    
     59100   295.74104      1568.5606      607.72252      78196.941      42.762516      0.57831576   
     59200   300.11151      1823.1582      528.68069      78136.021      42.751409      0.57876665   
     59300   303.31356      1397.1864      867.05373      77950.365      42.717522      0.58014512   
     59400   298.86555      1295.5948     -612.02922      78315.872      42.784185      0.57743753   
     59500   295.88288      1511.531       648.25023      78669.4        42.848466      0.57484262   
     59600   296.40617      1641.0035     -445.11714      78622.177      42.839891      0.57518788   
     59700   297.06835      1776.2015      424.55034      78193.93       42.761968      0.57833803   
     59800   297.80099      1913.0916     -990.69068      78500.383      42.817758      0.57608029   
     59900   303.06968      1773.151       470.53322      77550.496      42.644353      0.58313648   
     60000   303.25043      1755.0795     -309.89848      77806.153      42.691162      0.5812204    
     60100   296.66015      1456.2654     -324.26315      77244.959      42.588275      0.58544304   
     60200   296.65779      1480.8236     -272.37841      76618.371      42.472808      0.59023081   
     60300   298.61864      1452.422      -346.42809      76145.88       42.38532       0.59389324   
     60400   302.12573      1650.031       59.801153      75746.199      42.311032      0.59702697   
     60500   305.26255      1513.0272      39.094071      75544.05       42.273359      0.59862455   
     60600   302.25432      1463.9008     -225.7509       75248.979      42.218248      0.60097192   
     60700   297.01412      1559.8795     -312.79123      75173.446      42.204117      0.60157577   
     60800   292.91746      1432.0759     -135.85074      74926.476      42.157848      0.60355866   
     60900   299.96851      1374.4979      392.81343      74591.25       42.094882      0.60627116   
     61000   305.16589      1522.8676      71.214241      74165.308      42.014603      0.60975306   
     61100   304.21311      1481.1712      633.80601      74153.644      42.012401      0.60984897   
     61200   295.14385      1606.7068      360.76738      74265.193      42.033457      0.60893296   
     61300   301.5477       1920.7361     -1171.7724      74038.279      41.990602      0.61079922   
     61400   306.20344      1779.043      -336.00241      73728.795      41.932013      0.61336312   
     61500   309.25171      1409.5068      253.9101       73332.543      41.856758      0.61667742   
     61600   302.78578      1709.6859      1450.055       72707.804      41.737556      0.62197619   
     61700   293.87251      1523.8564     -708.0266       72942.328      41.782383      0.61997642   
     61800   296.14409      1602.8165      308.34408      72728.263      41.74147       0.62180124   
     61900   304.45698      1575.1448     -749.82697      72675.56       41.731385      0.62225215   
     62000   304.55601      1435.7517     -317.30604      72627.981      41.722276      0.62265979   
     62100   295.86161      2020.9657      325.15261      72088.962      41.618803      0.6273155    
     62200   298.43201      1834.3947      474.69309      72523.775      41.702312      0.62355446   
     62300   299.31008      1601.2566      31.687256      72443.98       41.687012      0.62424129   
     62400   301.28488      1620.1165      111.67391      72136.386      41.627928      0.62690309   
     62500   304.85317      1412.527      -57.740321      72108.295      41.622524      0.62714731   
     62600   294.69274      1669.2598      224.63484      71472.045      41.499743      0.63273023   
     62700   295.42535      1453.9063     -441.27095      71620.856      41.528525      0.63141557   
     62800   292.97598      1119.5534     -1264.4184      71763.658      41.556107      0.63015912   
     62900   304.66467      1467.6528     -4.4005955      71427.733      41.491164      0.63312276   
     63000   301.55004      2003.6981      964.6012       70549.494      41.320411      0.64100422   
     63100   295.93881      1769.7311      3.0421898      70297.388      41.271133      0.64330304   
     63200   292.45598      1737.6342     -232.41688      70616.222      41.333435      0.64039851   
     63300   298.97312      1374.2662     -186.72747      70029.034      41.21855       0.6457682    
     63400   300.08914      1514.1523     -288.0173       70381.048      41.287499      0.64253836   
     63500   298.40286      1867.9608      208.28983      70715.672      41.352829      0.6394979    
     63600   306.02449      1618.6932      313.14148      70079.674      41.228483      0.64530157   
     63700   299.18767      1754.525      -543.18312      70397.098      41.290637      0.64239187   
     63800   300.48254      1893.4205      38.188749      70250.713      41.261997      0.64373046   
     63900   298.36326      1656.7467      620.21289      69919.542      41.197057      0.64677946   
     64000   298.99683      1522.6931      804.18758      69809.397      41.175413      0.64779994   
     64100   299.27663      1834.5259     -786.84412      70138.659      41.240047      0.64475888   
     64200   306.59319      1841.4898     -336.58782      69355.676      41.086013      0.65203782   
     64300   304.29931      1724.4045      347.44489      69186.708      41.052621      0.65363022   
     64400   301.49765      1519.3438     -64.813406      69271.342      41.069353      0.65283164   
     64500   295.91502      1744.1        -175.57188      69354.771      41.085835      0.65204632   
     64600   296.57311      1629.2053     -701.86084      69223.261      41.059849      0.65328508   
     64700   298.85346      1645.7509      195.98388      69177.544      41.050808      0.65371682   
     64800   299.47986      1251.7593     -46.848941      69477.243      41.110005      0.65089692   
     64900   302.81884      1517.3254      137.32895      69551.831      41.124711      0.65019889   
     65000   308.82771      1343.3768      596.9789       69378.04       41.090429      0.65182763   
     65100   302.50685      1294.5041     -599.32011      69773.231      41.168301      0.64813572   
     65200   293.59409      1464.3286      447.33348      69962.588      41.205509      0.64638151   
     65300   300.14141      1330.9592      210.42572      69800.34       41.173632      0.647884     
     65400   301.592        1221.4203     -323.71843      69823.772      41.178239      0.64766658   
     65500   306.45561      1484.5955      317.41278      69774.657      41.168582      0.64812248   
     65600   312.94223      1523.6411      140.84915      69886.543      41.190575      0.64708486   
     65700   307.01035      1322.2868     -120.24903      69729.781      41.159754      0.64853959   
     65800   299.58651      1458.985       217.62148      70045.151      41.221712      0.64561962   
     65900   302.56805      1745.7535     -44.490056      70105.988      41.233643      0.64505935   
     66000   300.50727      1396.7649      465.96127      70479.606      41.306762      0.64163985   
     66100   299.58377      1458.8717      487.76549      70683.02       41.346463      0.63979331   
     66200   302.47029      1246.5663     -702.46134      70640.035      41.33808       0.64018263   
     66300   303.21524      1369.666       1108.1267      70599.304      41.330133      0.64055197   
     66400   305.32906      1276.0839      561.46071      70457.569      41.302457      0.64184053   
     66500   300.88022      1322.5051     -491.54343      70397.43       41.290702      0.64238884   
     66600   297.97672      1348.2988     -610.32309      70623.891      41.334931      0.64032898   
     66700   302.75791      1353.643      -346.86796      70397.055      41.290629      0.64239227   
     66800   308.09811      1284.8341      866.1855       70251.836      41.262217      0.64372017   
     66900   307.57723      1568.7254     -140.18553      70104.66       41.233382      0.64507157   
     67000   296.007        1611.6307     -401.83987      69474.274      41.109419      0.65092473   
     67100   294.21271      1369.9125     -305.14376      69947.601      41.202567      0.64652      
     67200   298.9591       1484.7076      375.03034      69823.836      41.178251      0.64766598   
     67300   298.87329      1356.8681      77.170794      69519.818      41.1184        0.6504983    
     67400   302.22566      1463.1091     -4.2815641      69672.722      41.148524      0.64907071   
     67500   304.91943      919.36583     -1024.423       69730.564      41.159908      0.64853231   
     67600   300.56794      1158.3156      80.406963      69355.19       41.085917      0.65204239   
     67700   295.8955       1316.7474      373.49324      69101.325      41.035726      0.65443786   
     67800   299.27196      1503.5527      420.01515      68894.797      40.994803      0.65639969   
     67900   300.77772      1384.1815     -571.66583      68927.309      41.001251      0.65609007   
     68000   299.47538      1676.9756     -326.12175      68872.312      40.990343      0.65661398   
     68100   301.81469      1545.806       602.2422       69010.679      41.017775      0.65529748   
     68200   309.3869       1235.9229      88.96926       68505.994      40.917541      0.66012506   
     68300   303.23781      1290.3587      298.39726      68170.904      40.850717      0.66336986   
     68400   299.11174      1232.2186     -408.71014      68236.206      40.863757      0.66273502   
     68500   298.76019      1342.1799      20.628408      68049.666      40.826486      0.66455173   
     68600   301.2109       1553.3743      324.25712      67615.499      40.739474      0.6688189    
     68700   305.24245      1503.656      -56.713738      67479.045      40.71205       0.67017136   
     68800   308.20793      1392.5882      93.178792      67480.414      40.712326      0.67015776   
     68900   301.92066      1286.1467     -609.90373      67618.764      40.74013       0.6687866    
     69000   300.56624      1354.9139      28.33368       67737.378      40.763938      0.6676155    
     69100   298.50045      1261.005       772.94514      67454.027      40.707018      0.67041992   
     69200   291.80221      1287.3481     -916.87901      67452.61       40.706733      0.670434     
     69300   304.32505      932.93951     -438.13912      67119.384      40.63959       0.67376249   
     69400   301.76267      1558.2881      713.47345      66923.657      40.600049      0.675733     
     69500   300.75419      1445.1461     -52.555275      67063.657      40.62834       0.67432236   
     69600   297.73703      1767.7415     -98.204379      67068.393      40.629296      0.67427474   
     69700   299.26656      1674.2148      438.66419      66871.218      40.589442      0.6762629    
[...]
    102100   301.4801       1253.0083      757.69532      53276.435      37.628051      0.84882788   
    102200   299.29753      913.1892       724.2056       52996.311      37.561986      0.85331456   
    102300   295.87943      1212.7744     -1249.4467      52982.17       37.558645      0.8535423    
    102400   296.31756      1625.5138     -574.04404      52963.719      37.554284      0.85383966   
    102500   303.84069      1495.7758     -491.96665      53012.919      37.565909      0.85304722   
    102600   305.26753      1568.2632      249.07827      52870.361      37.532206      0.85534736   
    102700   304.97307      1756.8734     -68.727106      52835.229      37.523891      0.85591611   
    102800   301.83253      1183.042      -480.47658      52564.134      37.459603      0.86033042   
    102900   300.487        1439.5387      486.99402      52662.503      37.482956      0.85872339   
    103000   296.58898      1531.2516      1001.2581      52632.319      37.475793      0.85921587   
    103100   301.96852      1439.9383     -645.43513      52567.419      37.460383      0.86027666   
    103200   305.06065      1923.0631      896.44453      52201.325      37.373219      0.86630988   
    103300   303.67129      1500.4902     -1620.2289      52431.681      37.428113      0.86250379   
    103400   299.87198      1507.9988      537.16382      52025.286      37.331161      0.86924123   
    103500   297.31373      1228.724      -904.81641      51861.557      37.291958      0.87198546   
    103600   294.66959      1424.0542     -100.33378      52053.114      37.337815      0.86877653   
    103700   307.20962      1405.9585     -117.72062      52127.096      37.355496      0.86754351   
    103800   313.56554      1031.4773      154.09265      52297.534      37.396165      0.86471618   
    103900   301.77455      1382.9515     -303.81297      52102.204      37.349549      0.86795798   
    104000   298.67093      1338.2723      24.856113      52315.347      37.400411      0.86442174   
    104100   294.63183      1499.6314      380.29693      52298.979      37.39651       0.86469228   
    104200   301.40677      1562.9239      533.38518      52194.213      37.371522      0.86642792   
    104300   301.15073      1208.0941     -868.34811      52189.779      37.370464      0.86650154   
    104400   303.69327      1643.3633      476.93006      51844.732      37.287925      0.87226844   
    104500   307.25011      1528.1633     -264.97516      51902.206      37.301698      0.87130253   
    104600   298.40758      1487.8147     -415.29246      52005.182      37.326351      0.86957726   
    104700   303.72111      1445.1849     -269.66134      51668.964      37.245738      0.87523573   
    104800   304.56651      1339.8061     -697.34229      51289.862      37.154422      0.88170491   
    104900   306.48077      1076.0934      1845.1927      51764.77       37.268744      0.87361585   
    105000   301.82131      1247.014       117.33149      51761.313      37.267915      0.87367419   
    105100   296.02765      1172.0879     -342.13775      51929.885      37.308328      0.87083812   
    105200   297.58115      1162.608      -226.46777      51995.312      37.32399       0.86974232   
    105300   298.10425      1051.0827     -1063.2441      51888.114      37.298322      0.87153917   
    105400   303.01672      1036.5444      565.99925      51887.009      37.298057      0.87155773   
    105500   305.68264      1068.8275      1039.383       51935.92       37.309773      0.87073692   
    105600   296.37727      1528.1874     -409.16081      52259.88       37.387188      0.86533922   
    105700   297.09862      1447.1006     -659.73635      52183.906      37.369062      0.86659905   
    105800   305.57223      1415.9106     -169.07987      51617.206      37.233297      0.87611335   
    105900   302.10317      1703.4699      722.78151      51463.244      37.196241      0.87873442   
    106000   305.44126      1209.3546     -1290.0031      52183.473      37.368959      0.86660624   
    106100   296.87555      1348.0928      1440.4169      52007.981      37.327021      0.86953046   
    106200   301.83349      931.797       -1392.4088      51942.483      37.311345      0.8706269    
    106300   294.81652      1086.4082      357.58413      51742.134      37.263311      0.87399803   
    106400   298.73868      1187.3159      159.66715      51548.434      37.216754      0.8772822    
    106500   307.20584      1310.2899      70.085388      51733.794      37.261309      0.87413894   
    106600   302.39692      1534.0637     -219.3576       51716.477      37.257151      0.87443163   
    106700   302.45078      1029.0572      1977.3438      51965.044      37.316746      0.87024892   
    106800   294.39066      1159.484      -297.03294      52190.814      37.370711      0.86648435   
    106900   302.08465      1238.3263     -6.8681646      51958.708      37.315229      0.87035504   
    107000   299.82628      999.44582     -213.40521      51939.303      37.310583      0.87068021   
    107100   297.28501      1359.2587      1064.8132      51930.796      37.308546      0.87082284   
    107200   297.45764      931.2092      -254.25505      51798.362      37.276805      0.87304929   
    107300   305.52711      944.3277       95.362305      51932.134      37.308867      0.87080041   
    107400   301.28372      976.75329     -259.24116      51903.315      37.301964      0.87128391   
    107500   301.66437      1386.9717      320.39462      51879.398      37.296234      0.87168559   
    107600   301.67491      1344.5894     -740.32796      52065.978      37.340891      0.86856188   
    107700   302.93014      1302.6442     -273.70151      52215.097      37.376506      0.86608138   
    107800   303.19783      1179.6323      960.2743       52370.081      37.413449      0.8635183    
    107900   301.00628      1127.4723      441.70009      52105.809      37.350411      0.86789792   
    108000   302.95518      1148.8081     -37.184055      51824.231      37.283009      0.8726135    
    108100   293.93772      1222.1259     -1040.201       51502.209      37.205626      0.87806959   
    108200   298.48826      1129.7521      385.59555      51265.427      37.148521      0.88212517   
    108300   297.29472      1082.6603      293.30029      51725.988      37.259435      0.87427085   
    108400   299.19697      1491.809      -556.10515      51628.258      37.235955      0.8759258    
    108500   304.65007      1578.2236      555.52692      51379.654      37.176091      0.88016404   
    108600   296.52783      1433.7445     -638.35482      51460.318      37.195536      0.87878437   
    108700   295.24821      1245.8525      1344.7045      51494.449      37.203758      0.8782019    
    108800   297.25101      1289.7013     -857.23981      51693.921      37.251734      0.87481318   
    108900   298.09289      1318.0375     -591.56002      51592.84       37.227438      0.87652712   
    109000   302.91368      1351.4097     -36.874528      51528.207      37.211886      0.87762657   
    109100   305.16239      1424.553       669.22065      51487.163      37.202003      0.87832618   
    109200   298.88824      1309.9947      763.25683      51721.136      37.25827       0.87435287   
    109300   301.87007      1130.9247      672.13583      51960.627      37.315689      0.8703229    
    109400   294.17455      954.21423     -834.63161      52503.296      37.445145      0.86132733   
    109500   297.25292      1470.4246     -214.85008      51959.891      37.315512      0.87033523   
    109600   302.30231      1046.249       911.21572      51814.623      37.280705      0.8727753    
    109700   307.64029      1237.4333      849.48126      51863.242      37.292362      0.87195713   
    109800   307.13789      1178.4533     -1566.6219      52327.882      37.403398      0.86421467   
    109900   304.01877      1331.8645      537.53228      52282.98       37.392696      0.86495688   
    110000   298.67199      1301.1762     -307.13312      51581.806      37.224783      0.87671463   
    110100   299.80005      1202.2109     -92.871851      51411.926      37.183873      0.87961154   
    110200   297.62511      1030.1392      103.7177       51736.074      37.261857      0.8741004    
    110300   294.85717      1189.7564     -275.66132      51738.582      37.262459      0.87405803   
    110400   297.77789      1210.109      -43.310677      51960.115      37.315566      0.87033148   
    110500   303.01328      996.96131      1472.3167      52118.163      37.353362      0.86769221   
    110600   304.53683      914.84204     -312.27296      52258.113      37.386767      0.86536847   
    110700   301.0901       928.37711     -853.07682      52443.685      37.430969      0.86230637   
    110800   298.54293      1104.321      -958.76994      52392.553      37.4188        0.86314792   
    110900   297.44652      1228.7832      905.31607      52359.617      37.410957      0.86369088   
    111000   299.81276      986.5172       670.92844      52602.332      37.468675      0.85970567   
    111100   299.54455      1119.8251      745.43093      52407.191      37.422284      0.86290685   
    111200   299.71249      1012.7191     -914.62105      52198.629      37.372576      0.86635462   
    111300   297.57218      1253.4113      1373.9836      52089.015      37.346398      0.86817774   
    111400   299.32826      1103.2466     -183.38506      52049.012      37.336835      0.868845     
    111500   295.09355      782.9106       263.99785      52096.532      37.348194      0.86805248   
    111600   294.96475      1303.0717     -266.23432      52157.012      37.362641      0.86704591   
    111700   297.93682      1372.0463     -332.89875      52003.73       37.326004      0.86960154   
    111800   298.2648       1027.1094      2155.2652      51796.88       37.276449      0.87307427   
    111900   304.87592      1122.3516     -1616.6768      51765.67       37.26896       0.87360066   
    112000   306.20433      1577.3678     -351.75939      51134.007      37.11675       0.88439232   
    112100   293.2051       1741.0329     -166.35069      50977.929      37.078947      0.88710005   
    112200   296.75272      1281.9966      676.57556      50901.78       37.060476      0.88842716   
    112300   299.14815      1467.0671      1309.365       50597.218      36.986413      0.8937749    
    112400   298.35379      1411.6447     -868.14667      50850.55       37.048038      0.88932221   
    112500   301.14243      975.63766     -760.45696      51034.095      37.09256       0.88612375   
    112600   310.41186      1441.5974      921.39351      50394.853      36.937038      0.89736393   
    112700   305.03286      1346.0642      562.48541      50578.975      36.981967      0.89409726   
    112800   296.61669      1181.5581     -2249.05        50858.305      37.049922      0.8891866    
    112900   296.59037      1331.8102     -301.33559      50759.239      37.02585       0.89092201   
    113000   297.99969      691.50424      1000.2295      50649.619      36.999177      0.89285023   
    113100   304.14689      1554.3265      341.97918      50771.445      37.028817      0.89070782   
    113200   301.46706      1320.9582     -600.59824      51148.364      37.120223      0.88414409   
    113300   305.26896      1380.3867      847.09297      51049.333      37.096251      0.88585924   
    113400   297.60006      1580.9522      219.80969      51089.217      37.10591       0.88516767   
    113500   288.15242      1375.9654     -81.520132      50975.91       37.078458      0.88713519   
    113600   300.25166      993.60887      248.42903      51376.079      37.175229      0.88022528   
    113700   303.80824      1406.8967     -179.51831      51309.645      37.159198      0.88136497   
    113800   298.47844      1340.481       683.86833      51088.688      37.105782      0.88517684   
    113900   300.89398      1597.9215     -104.1863       51161.612      37.123428      0.88391514   
    114000   299.94558      1288.6169      245.87399      51167.209      37.124782      0.88381846   
    114100   298.90111      1125.8587     -550.49507      50974.483      37.078112      0.88716003   
    114200   299.16649      1159.0749      181.84185      50886.661      37.056806      0.88869111   
    114300   295.47615      1088.3663     -143.8287       50709.738      37.01381       0.89179171   
    114400   310.22926      1108.5867      516.09115      50738.872      37.020897      0.89127965   
    114500   304.23178      1224.41       -243.82956      50858.812      37.050045      0.88917774   
    114600   299.48864      1277.7593      776.3086       50662.592      37.002335      0.89262159   
    114700   301.25704      1271.4308      712.86641      50680.847      37.006779      0.89230007   
    114800   297.22373      1707.3439      176.86748      50611.33       36.989851      0.89352569   
    114900   301.43748      1010.0788     -43.538531      50618.291      36.991547      0.8934028    
    115000   298.53117      943.71473      1116.1274      50892.042      37.058112      0.88859715   
    115100   300.61615      1440.5404     -2269.5153      50690.384      37.0091        0.8921322    
    115200   300.80387      1421.4095      2188.3585      50178.696      36.884151      0.90122954   
    115300   301.30598      1135.9045     -655.02263      50419.318      36.943014      0.89692851   
    115400   300.35816      1006.801       861.32412      50414.856      36.941924      0.89700788   
    115500   296.77014      1005.6666     -1458.9301      50647.386      36.998633      0.89288959   
    115600   299.36831      1282.5082     -251.24169      50407.936      36.940234      0.89713103   
    115700   300.00038      1239.9073     -195.16128      50305.616      36.915223      0.89895576   
    115800   301.77621      1221.9314      1043.5119      50496.908      36.961955      0.89555034   
    115900   300.08316      1378.8676      526.3167       50350.169      36.926117      0.89816032   
    116000   294.87437      1317.8176      311.90275      50836.215      37.044557      0.88957299   
    116100   297.03567      1561.5713     -370.54542      51007.746      37.086175      0.88658148   
    116200   298.262        1063.3341     -707.20974      50902.738      37.060708      0.88841043   
    116300   291.41787      943.45898      304.21053      50891.33       37.057939      0.88860958   
    116400   302.61898      1194.4303      1592.5132      50676.042      37.00561       0.89238467   
    116500   297.80464      903.40602     -1621.0646      50975.223      37.078291      0.88714715   
    116600   300.43892      1254.3538      269.04717      50690.674      37.009171      0.89212708   
    116700   299.65234      851.05873      336.06543      50693.099      37.009761      0.89208441   
    116800   289.44418      1002.9302      260.40295      50833.876      37.043988      0.88961392   
    116900   294.46008      1234.19        236.65359      50921.972      37.065376      0.88807486   
    117000   302.19295      1165.5041     -1343.2649      50865.967      37.051782      0.88905267   
    117100   303.24166      1338.9459      524.91796      51032.836      37.092255      0.88614561   
    117200   301.87687      1394.7223     -741.41196      51104.328      37.109568      0.88490593   
    117300   302.2377       1464.1885      338.97016      51237.808      37.141848      0.88260067   
    117400   295.34813      1466.1758      918.03288      51060.554      37.098969      0.88566457   
    117500   295.49078      1411.7993     -1658.8548      51058.563      37.098487      0.88569911   
    117600   301.07505      1459.9424      837.75391      51123.532      37.114215      0.88457354   
    117700   305.68607      1149.434       166.72546      51043.55       37.09485       0.88595961   
    117800   300.91986      1513.2666      1486.6931      51118.559      37.113012      0.88465959   
    117900   298.86302      1454.8674     -284.07861      51198.832      37.132428      0.88327256   
    118000   295.03028      1451.1739     -1763.2243      50992.24       37.082417      0.88685109   
    118100   296.63358      1364.9036      589.4413       51145.998      37.119651      0.88418498   
    118200   303.37541      1311.7538     -687.8781       51258.776      37.146914      0.88223963   
    118300   306.09502      1587.7347      1001.509       50972.703      37.07768       0.88719101   
    118400   301.16393      1206.801      -1131.7142      51219.141      37.137337      0.88292234   
    118500   302.7734       1542.436       55.190442      50960.187      37.074645      0.88740889   
    118600   292.58762      1481.4941      208.127        50738.521      37.020812      0.8912858    
    118700   296.64635      1529.705       710.38892      50851.874      37.04836       0.88929905   
    118800   301.6799       1348.3084      425.373        50927.983      37.066834      0.88797006   
    118900   308.43027      1613.472      -152.48972      50932.825      37.068009      0.88788563   
    119000   308.57266      1709.4088      277.61056      51049.707      37.096342      0.88585275   
    119100   302.27454      1576.3597     -1327.4422      51242.76       37.143045      0.88251537   
    119200   298.03234      1463.5141     -504.41969      51044.224      37.095014      0.88594791   
    119300   300.34606      1461.0603      179.55759      50791.686      37.033737      0.89035288   
    119400   298.33157      1468.4105      854.58465      50899.41       37.0599        0.88846853   
    119500   301.03694      1335.5831     -516.31519      50988.683      37.081554      0.88691295   
    119600   300.54516      1616.6387     -675.5276       50920.712      37.06507       0.88809684   
    119700   297.33407      1522.975      -1833.7777      51331.239      37.164411      0.88099419   
    119800   300.80789      1219.6829     -900.86786      51001.29       37.08461       0.88669371   
    119900   292.95673      1673.053      -211.8359       50759.751      37.025974      0.89091303   
    120000   299.30668      1166.6858      421.24791      50919.884      37.064869      0.88811129   
    120025   300.63644      1298.5314      459.57218      50854.115      37.048904      0.88925987   
Loop time of 663.685 on 4 procs for 100000 steps with 3596 atoms

Performance: 13.018 ns/day, 1.844 hours/ns, 150.674 timesteps/s
34.1% CPU use with 1 MPI tasks x 4 OpenMP threads

MPI task timing breakdown:
Section |  min time  |  avg time  |  max time  |%varavg| %total
---------------------------------------------------------------
Pair    | 465.04     | 465.04     | 465.04     |   0.0 | 70.07
Bond    | 53.762     | 53.762     | 53.762     |   0.0 |  8.10
Neigh   | 53.688     | 53.688     | 53.688     |   0.0 |  8.09
Comm    | 6.2905     | 6.2905     | 6.2905     |   0.0 |  0.95
Output  | 0.28342    | 0.28342    | 0.28342    |   0.0 |  0.04
Modify  | 83.088     | 83.088     | 83.088     |   0.0 | 12.52
Other   |            | 1.531      |            |       |  0.23

Nlocal:           3596 ave        3596 max        3596 min
Histogram: 1 0 0 0 0 0 0 0 0 0
Nghost:          10020 ave       10020 max       10020 min
Histogram: 1 0 0 0 0 0 0 0 0 0
Neighs:    1.02665e+06 ave 1.02665e+06 max 1.02665e+06 min
Histogram: 1 0 0 0 0 0 0 0 0 0

Total # of neighbors = 1026647
Ave neighs/atom = 285.49694
Ave special neighs/atom = 11.430478
Neighbor list builds = 4794
Dangerous builds = 0
unfix			1
#final
write_data		before_cross_linking_with_charge_4.data
System init for write_data ...
Generated 136 of 136 mixed pair_coeff terms from geometric mixing rule
Last active /omp style is angle_style harmonic/omp

#parameter
neighbor		2.0 bin
Total wall time: 0:12:13
