LAMMPS (15 Sep 2022)
OMP_NUM_THREADS environment is not set. Defaulting to 1 thread. (src/comm.cpp:98)
  using 1 OpenMP thread(s) per MPI task
Loaded 1 plugins from C:\Users\HP\AppData\Local\LAMMPS 64-bit 15Sep2022\plugins
package omp 0
using multi-threaded neighbor list subroutines
package omp 16
set 16 OpenMP thread(s) per MPI task
using multi-threaded neighbor list subroutines
# Initialization
units			real
dimension		3
processors		* * *
boundary		p p p
atom_style		full
pair_style		lj/cut/coul/cut 10.0
bond_style		harmonic
angle_style 	harmonic
dihedral_style  harmonic
read_data		PVA_GA_NC_OXY_LARGE_DIHEDRALS_INPUT_WITH_CHARGE.data
Reading data file ...
  orthogonal box = (-0.134997 1.224001 -0.414498) to (179.865 181.224 179.5855)
  1 by 1 by 1 MPI processor grid
  reading atoms ...
  6664 atoms
  reading velocities ...
  6664 velocities
  scanning bonds ...
  4 = max bonds/atom
  scanning angles ...
  6 = max angles/atom
  scanning dihedrals ...
  12 = max dihedrals/atom
  reading bonds ...
  6620 bonds
  reading angles ...
  12056 angles
  reading dihedrals ...
  18888 dihedrals
Finding 1-2 1-3 1-4 neighbors ...
  special bond factors lj:    0        0        0       
  special bond factors coul:  0        0        0       
     4 = max # of 1-2 neighbors
     7 = max # of 1-3 neighbors
    16 = max # of 1-4 neighbors
    20 = max # of special neighbors
  special bonds CPU = 0.007 seconds
  read_data CPU = 0.184 seconds

#output

thermo			100
thermo_style	custom step temp pe press vol lx density
dump			1 all custom 100 before_cross_linking.lammpstrj id type x y z
timestep 1


#intial minimization
minimize		1.0e-5 1.0e-5 10000 10000
Switching to 'neigh_modify every 1 delay 0 check yes' setting during minimization
Generated 136 of 136 mixed pair_coeff terms from geometric mixing rule
Last active /omp style is dihedral_style harmonic/omp
Neighbor list info ...
  update: every = 1 steps, delay = 0 steps, check = yes
  max neighbors/atom: 2000, page size: 100000
  master list distance cutoff = 12
  ghost atom cutoff = 12
  binsize = 6, bins = 30 30 30
  1 neighbor lists, perpetual/occasional/extra = 1 0 0
  (1) pair lj/cut/coul/cut/omp, perpetual
      attributes: half, newton on, omp
      pair build: half/bin/newton/omp
      stencil: half/bin/3d
      bin: standard
Per MPI rank memory allocation (min/avg/max) = 29.76 | 29.76 | 29.76 Mbytes
   Step          Temp          PotEng         Press          Volume           Lx          Density    
         0   0              54458.422      322.15692      5832000        180            0.01301734   
        62   0              13719.39      -16.771833      5832000        180            0.01301734   
Loop time of 0.704431 on 16 procs for 62 steps with 6664 atoms

77.6% CPU use with 1 MPI tasks x 16 OpenMP threads

Minimization stats:
  Stopping criterion = linesearch alpha is zero
  Energy initial, next-to-last, final = 
      54458.4216171767    13719.390145738    13719.390145738
  Force two-norm initial, final = 15838.131 166.14908
  Force max component initial, final = 2037.2491 21.389885
  Final line search alpha, max atom move = 2.3475129e-13 5.021303e-12
  Iterations, force evaluations = 62 186

MPI task timing breakdown:
Section |  min time  |  avg time  |  max time  |%varavg| %total
---------------------------------------------------------------
Pair    | 0.3571     | 0.3571     | 0.3571     |   0.0 | 50.69
Bond    | 0.26051    | 0.26051    | 0.26051    |   0.0 | 36.98
Neigh   | 0.008619   | 0.008619   | 0.008619   |   0.0 |  1.22
Comm    | 0.003249   | 0.003249   | 0.003249   |   0.0 |  0.46
Output  | 0          | 0          | 0          |   0.0 |  0.00
Modify  | 0.036538   | 0.036538   | 0.036538   |   0.0 |  5.19
Other   |            | 0.03842    |            |       |  5.45

Nlocal:           6664 ave        6664 max        6664 min
Histogram: 1 0 0 0 0 0 0 0 0 0
Nghost:            771 ave         771 max         771 min
Histogram: 1 0 0 0 0 0 0 0 0 0
Neighs:         252025 ave      252025 max      252025 min
Histogram: 1 0 0 0 0 0 0 0 0 0

Total # of neighbors = 252025
Ave neighs/atom = 37.818878
Ave special neighs/atom = 11.273709
Neighbor list builds = 3
Dangerous builds = 0

# nvt for 200 ps
fix			1 all nvt temp 300 300 100
run			400000
Generated 136 of 136 mixed pair_coeff terms from geometric mixing rule
Last active /omp style is dihedral_style harmonic/omp
Per MPI rank memory allocation (min/avg/max) = 28.64 | 28.64 | 28.64 Mbytes
   Step          Temp          PotEng         Press          Volume           Lx          Density    
        62   0              13719.39      -16.771833      5832000        180            0.01301734   
       100   4.9799955      13649.328     -12.857983      5832000        180            0.01301734   
       200   24.156077      13370.586     -6.095999       5832000        180            0.01301734   
       300   42.876316      13111.405      7.8247844      5832000        180            0.01301734   
       400   59.243751      12956.303      9.5451299      5832000        180            0.01301734   
       500   71.127536      13609.799      9.0329415      5832000        180            0.01301734   
       600   84.818639      13844.054      13.71662       5832000        180            0.01301734   
       700   106.01533      13838.7        11.374649      5832000        180            0.01301734   
       800   133.39977      13987.716      6.1807227      5832000        180            0.01301734   
       900   161.77309      14651.123     -0.79493175     5832000        180            0.01301734   
      1000   188.38389      15212.619     -21.107841      5832000        180            0.01301734   
      1100   246.29812      15555.911     -6.0201838      5832000        180            0.01301734   
      1200   286.36114      15734.292     -13.574335      5832000        180            0.01301734   
      1300   292.56845      16664.552     -54.562133      5832000        180            0.01301734   
      1400   302.12793      16929.088     -52.195002      5832000        180            0.01301734   
      1500   327.27668      17089.445     -18.415666      5832000        180            0.01301734   
      1600   300.2894       17033.319     -3.1797009      5832000        180            0.01301734   
      1700   279.40202      17115.43       5.9754735      5832000        180            0.01301734   
      1800   283.86983      16947.796     -11.567484      5832000        180            0.01301734   
      1900   311.38147      17049.49       25.157294      5832000        180            0.01301734   
      2000   306.84255      16999.797      36.413057      5832000        180            0.01301734   
      2100   286.31426      17199.016     -10.195995      5832000        180            0.01301734   
      2200   286.67191      17008.374      3.8956536      5832000        180            0.01301734   
      2300   305.17951      17265.068     -12.173851      5832000        180            0.01301734   
      2400   311.20645      17357.441     -11.032511      5832000        180            0.01301734   
      2500   306.08791      17297.287      2.9791025      5832000        180            0.01301734   
      2600   283.27671      17557.012      0.64531114     5832000        180            0.01301734   
      2700   288.10428      17983.363     -6.2057431      5832000        180            0.01301734   
      2800   321.85217      17730.785      3.5552615      5832000        180            0.01301734   
      2900   314.68024      17853.655     -4.4300827      5832000        180            0.01301734   
      3000   301.0745       17313.017     -2.5815975      5832000        180            0.01301734   
      3100   291.54958      17094.516      6.3940546      5832000        180            0.01301734   
      3200   290.21536      16710.168     -36.717412      5832000        180            0.01301734   
      3300   294.30044      17159.178     -3.1597939      5832000        180            0.01301734   
      3400   304.58543      17311.645      19.928597      5832000        180            0.01301734   
      3500   306.06553      17701.13      -1.5527158      5832000        180            0.01301734   
      3600   302.44454      17706.941     -3.5336518      5832000        180            0.01301734   
      3700   299.01358      17648.733     -27.889502      5832000        180            0.01301734   
      3800   298.10819      17532.657     -10.097277      5832000        180            0.01301734   
      3900   295.97097      17657.016      8.9310529      5832000        180            0.01301734   
      4000   303.43245      17824.184      19.190843      5832000        180            0.01301734   
      4100   301.20437      17936.793      2.8610954      5832000        180            0.01301734   
      4200   305.00182      17866.256      8.2078454      5832000        180            0.01301734   
      4300   293.85614      17744.207     -1.5297064      5832000        180            0.01301734   
      4400   287.05255      17768.042     -6.1386879      5832000        180            0.01301734   
      4500   293.32186      18027.87       6.8423175      5832000        180            0.01301734   
      4600   308.87203      17823.368      9.9066516      5832000        180            0.01301734   
      4700   316.21423      17861.236      7.1932593      5832000        180            0.01301734   
      4800   300.04873      17803.952      3.8777204      5832000        180            0.01301734   
      4900   292.89306      17491.853      14.065264      5832000        180            0.01301734   
      5000   289.65951      17500.025      11.744632      5832000        180            0.01301734   
      5100   294.59658      17554.022      10.263252      5832000        180            0.01301734   
      5200   305.05779      17547.451      6.6935067      5832000        180            0.01301734   
      5300   308.89909      17478.45       9.6311408      5832000        180            0.01301734   
      5400   304.5105       17536.284     -8.0134442      5832000        180            0.01301734   
      5500   298.21126      17461.083      16.991843      5832000        180            0.01301734   
      5600   288.45573      17500.869     -2.3031314      5832000        180            0.01301734   
      5700   297.88614      17331.542     -8.8214819      5832000        180            0.01301734   
      5800   304.77923      17444.625      8.3935287      5832000        180            0.01301734   
      5900   303.33101      17269.713      14.704654      5832000        180            0.01301734   
      6000   292.7532       17315.12       5.7132498      5832000        180            0.01301734   
      6100   289.79684      17618.395     -3.049192       5832000        180            0.01301734   
      6200   298.31149      17401.953      0.56626882     5832000        180            0.01301734   
      6300   305.5835       17766.854      9.5380393      5832000        180            0.01301734   
      6400   310.57487      17538.983     -6.1328898      5832000        180            0.01301734   
      6500   302.87093      17567.688      16.42642       5832000        180            0.01301734   
      6600   299.45751      17270.36       0.5221985      5832000        180            0.01301734   
      6700   290.89749      17300.756      6.2422228      5832000        180            0.01301734   
      6800   295.95521      17343.916     -4.6772871      5832000        180            0.01301734   
      6900   307.05931      17178.997     -3.9418781      5832000        180            0.01301734   
      7000   300.79734      17422.184      12.638019      5832000        180            0.01301734   
      7100   296.11874      17089.173      16.360386      5832000        180            0.01301734   
      7200   293.54924      16934.2        3.8854153      5832000        180            0.01301734   
      7300   289.57006      17083.143     -0.70154562     5832000        180            0.01301734   
      7400   302.89409      17243.536     -10.151245      5832000        180            0.01301734   
      7500   305.90579      17306.041      9.1410216      5832000        180            0.01301734   
      7600   306.12365      17369.58       5.3429844      5832000        180            0.01301734   
      7700   302.67766      17178.343      14.086338      5832000        180            0.01301734   
      7800   292.28657      17166.591      6.2977547      5832000        180            0.01301734   
      7900   297.56019      17065.363      5.4804363      5832000        180            0.01301734   
      8000   299.79501      17157.242      5.124762       5832000        180            0.01301734   
      8100   308.37146      17208.635      6.4719045      5832000        180            0.01301734   
      8200   305.33499      17247.954     -0.5961584      5832000        180            0.01301734   
      8300   296.11546      16844.963     -0.4651923      5832000        180            0.01301734   
      8400   289.86717      17298.973     -1.6989539      5832000        180            0.01301734   
      8500   295.73191      17114.209     -1.0672987      5832000        180            0.01301734   
      8600   300.56699      17249.401     -2.6280743      5832000        180            0.01301734   
      8700   309.7135       17369.988     -5.9553099      5832000        180            0.01301734   
      8800   305.304        17169.725     -11.914911      5832000        180            0.01301734   
      8900   297.31263      17317.156     -1.3048568      5832000        180            0.01301734   
      9000   291.38037      17315.948     -12.357125      5832000        180            0.01301734   
      9100   295.29023      17233.508      3.1810691      5832000        180            0.01301734   
      9200   308.36627      17110.91       17.540434      5832000        180            0.01301734   
      9300   306.31293      17328.875     -9.3606655      5832000        180            0.01301734   
      9400   302.24635      17143.719      0.29854765     5832000        180            0.01301734   
      9500   295.61766      17244.211     -2.0405019      5832000        180            0.01301734   
      9600   292.74299      17169.12      -11.59505       5832000        180            0.01301734   
      9700   302.42739      17167.11      -14.682116      5832000        180            0.01301734   
      9800   301.67677      17372.835      17.500831      5832000        180            0.01301734   
      9900   309.77437      17298.803      5.7454607      5832000        180            0.01301734   
     10000   300.49547      17628.758     -9.655363       5832000        180            0.01301734   
     10100   299.06527      17382.601     -3.9967307      5832000        180            0.01301734   
     10200   298.34162      17239.301     -13.258835      5832000        180            0.01301734   
     10300   297.62417      17139.009      6.1783228      5832000        180            0.01301734   
     10400   301.73843      17065.235      11.929557      5832000        180            0.01301734   
     10500   300.29898      17446.127      6.704954       5832000        180            0.01301734   
     10600   300.01498      17332.19      -14.040286      5832000        180            0.01301734   
     10700   307.29595      17361.239     -2.1484813      5832000        180            0.01301734   
     10800   294.586        17310.324      1.175986       5832000        180            0.01301734   
     10900   295.44357      17195.976      17.144407      5832000        180            0.01301734   
     11000   302.08089      17328.787     -5.4321593      5832000        180            0.01301734   
     11100   305.50517      17318.311      2.0931607      5832000        180            0.01301734   
     11200   305.21344      16991.274      2.9525737      5832000        180            0.01301734   
     11300   299.3449       17069.241      9.2743642      5832000        180            0.01301734   
     11400   292.7668       17023.609     -1.7271697      5832000        180            0.01301734   
     11500   292.74019      16769.312     -1.016128       5832000        180            0.01301734   
     11600   298.85094      17054.023      4.8599863      5832000        180            0.01301734   
     11700   308.14153      17426.074     -4.1668439      5832000        180            0.01301734   
     11800   305.9845       17371.106      7.7696288      5832000        180            0.01301734   
     11900   298.61126      17046.533      2.1404891      5832000        180            0.01301734   
     12000   295.77457      16816.354      11.503854      5832000        180            0.01301734   
     12100   297.29764      16998.708      2.6077926      5832000        180            0.01301734   
     12200   302.56958      17286.907     -2.2286503      5832000        180            0.01301734   
     12300   303.53526      17301.087     -3.858284       5832000        180            0.01301734   
     12400   303.74261      17100.599      4.3377725      5832000        180            0.01301734   
     12500   300.31021      16953.975      1.3688698      5832000        180            0.01301734   
     12600   296.15355      17030.454     -7.4770564      5832000        180            0.01301734   
     12700   297.0908       17361.182      1.9950932      5832000        180            0.01301734   
     12800   305.73765      17339.635      9.8823435      5832000        180            0.01301734   
     12900   298.87713      17373.339      9.8602842      5832000        180            0.01301734   
     13000   303.27759      17151.75      -0.42669224     5832000        180            0.01301734   
     13100   295.56929      17223.207     -6.8201042      5832000        180            0.01301734   
     13200   301.15564      17094.779      0.16106846     5832000        180            0.01301734   
     13300   302.14207      17327.204      1.0476457      5832000        180            0.01301734   
     13400   305.69281      17220.984     -3.1998919      5832000        180            0.01301734   
     13500   304.76263      17172.268     -2.3938533      5832000        180            0.01301734   
     13600   303.60427      17414.608      9.8897329      5832000        180            0.01301734   
     13700   296.15815      17272.387     -3.1814617      5832000        180            0.01301734   
     13800   296.81321      17165.034     -7.2103938      5832000        180            0.01301734   
     13900   301.07248      17196.88       12.291624      5832000        180            0.01301734   
     14000   307.90442      16992.238     -2.7507275      5832000        180            0.01301734   
     14100   299.89312      17246.472     -2.4991819      5832000        180            0.01301734   
     14200   299.36287      16977.437     -2.5474901      5832000        180            0.01301734   
     14300   292.82192      16761.867     -11.537997      5832000        180            0.01301734   
     14400   295.20805      16984.677      8.7615105      5832000        180            0.01301734   
     14500   304.43047      16849.273      15.158681      5832000        180            0.01301734   
     14600   305.36338      17300.813      4.977088       5832000        180            0.01301734   
     14700   304.88366      16942.098      10.409925      5832000        180            0.01301734   
     14800   301.67597      16574.284     -1.1168949      5832000        180            0.01301734   
     14900   298.44957      16863.576      9.7798837      5832000        180            0.01301734   
     15000   294.35008      16924.774     -0.77473129     5832000        180            0.01301734   
     15100   297.42015      16928.372     -14.723009      5832000        180            0.01301734   
     15200   305.05619      16999.248      4.3778755      5832000        180            0.01301734   
     15300   311.54282      16859.97       1.3325641      5832000        180            0.01301734   
     15400   303.64368      17105.393      1.8568614      5832000        180            0.01301734   
     15500   290.38427      16873.952     -16.969511      5832000        180            0.01301734   
     15600   286.02451      16926.013     -0.14650192     5832000        180            0.01301734   
     15700   298.20772      16933.075      0.73790973     5832000        180            0.01301734   
     15800   305.25942      17187.659      11.676996      5832000        180            0.01301734   
     15900   307.04071      17125.61      -3.7010094      5832000        180            0.01301734   
     16000   304.17736      16912.294      9.2312974      5832000        180            0.01301734   
     16100   294.59275      17053.33       10.504473      5832000        180            0.01301734   
     16200   293.49196      16926.757     -10.015004      5832000        180            0.01301734   
     16300   298.26787      16958.421      7.6545027      5832000        180            0.01301734   
     16400   311.61768      16856.336     -3.829984       5832000        180            0.01301734   
     16500   298.788        17059.689      13.96952       5832000        180            0.01301734   
     16600   295.73073      17322.941     -8.1432325      5832000        180            0.01301734   
     16700   302.41339      17032.047     -7.625894       5832000        180            0.01301734   
     16800   299.64006      17178.756      1.0585804      5832000        180            0.01301734   
     16900   300.4909       17072.581     -5.074748       5832000        180            0.01301734   
     17000   300.03097      17235.837     -11.969953      5832000        180            0.01301734   
     17100   298.35952      17273.315      9.9816586      5832000        180            0.01301734   
     17200   297.80164      17262.894     -1.7300289      5832000        180            0.01301734   
     17300   296.17009      17051.394     -13.677343      5832000        180            0.01301734   
     17400   304.03322      16767.137     -1.0042192      5832000        180            0.01301734   
     17500   298.08651      17009.905     -11.358493      5832000        180            0.01301734   
     17600   302.2042       16718.739      2.6764125      5832000        180            0.01301734   
     17700   298.4731       16849.992     -6.0996334      5832000        180            0.01301734   
     17800   302.31935      16893.959     -1.7670086      5832000        180            0.01301734   
     17900   300.61075      16964.209      19.37712       5832000        180            0.01301734   
     18000   295.60218      17043.243     -15.035396      5832000        180            0.01301734   
     18100   288.16881      17405.065     -0.13848815     5832000        180            0.01301734   
     18200   300.22572      17212.259     -3.5746811      5832000        180            0.01301734   
     18300   304.27137      17254.405      1.5863679      5832000        180            0.01301734   
     18400   301.11628      17326.29       0.76500938     5832000        180            0.01301734   
     18500   304.87183      17147.065      6.6069267      5832000        180            0.01301734   
     18600   296.20208      17084.392     -3.3788112      5832000        180            0.01301734   
     18700   295.68812      17111.725     -14.945356      5832000        180            0.01301734   
     18800   300.12824      17114.187     -11.19341       5832000        180            0.01301734   
     18900   304.43301      16930.991     -3.3968388      5832000        180            0.01301734   
     19000   302.76515      17038.198     -4.7219082      5832000        180            0.01301734   
     19100   301.89888      16945.145     -7.9683241      5832000        180            0.01301734   
     19200   297.63735      16777.723      6.7150091      5832000        180            0.01301734   
     19300   292.71406      16987.971     -3.5101013      5832000        180            0.01301734   
     19400   295.16312      16878.237     -8.4227048      5832000        180            0.01301734   
     19500   308.16298      17185.955     -2.1902361      5832000        180            0.01301734   
     19600   304.51003      17176.534      7.8424026      5832000        180            0.01301734   
     19700   304.68099      17140.153     -4.6810688      5832000        180            0.01301734   
     19800   295.86468      17170.251     -0.96747984     5832000        180            0.01301734   
     19900   298.95645      16818.229      6.1717019      5832000        180            0.01301734   
     20000   300.11408      16965.075      6.429673       5832000        180            0.01301734   
     20100   297.46922      16942.956      6.016797       5832000        180            0.01301734   
     20200   301.68691      17185.817      5.8217206      5832000        180            0.01301734   
     20300   296.03738      16916.594     -2.1023997      5832000        180            0.01301734   
     20400   299.4388       16815.76      -5.6265042      5832000        180            0.01301734   
     20500   303.4649       16752.165      9.3845813      5832000        180            0.01301734   
     20600   302.32149      16658.672     -2.7332437      5832000        180            0.01301734   
     20700   298.01131      16770.861     -4.2826212      5832000        180            0.01301734   
     20800   296.27474      16949.943     -2.3877096      5832000        180            0.01301734   
     20900   302.97752      17085.32       13.398194      5832000        180            0.01301734   
     21000   302.91637      16957.01       2.7468947      5832000        180            0.01301734   
     21100   302.02484      16773.458     -4.5679092      5832000        180            0.01301734   
     21200   299.02184      16837.283     -10.267302      5832000        180            0.01301734   
     21300   295.39756      17027.71      -8.7793952      5832000        180            0.01301734   
     21400   302.75611      16941.551      20.626229      5832000        180            0.01301734   
     21500   300.83782      17104.158      1.0199632      5832000        180            0.01301734   
     21600   299.07628      17300.792     -5.42167        5832000        180            0.01301734   
     21700   300.80157      17375.838      0.15451864     5832000        180            0.01301734   
     21800   303.71011      17314.708      9.3318733      5832000        180            0.01301734   
     21900   293.87326      17125.848      6.4412266      5832000        180            0.01301734   
     22000   294.36339      17032.945     -18.513545      5832000        180            0.01301734   
     22100   302.56014      16909.838      8.5506056      5832000        180            0.01301734   
     22200   306.99245      16883.073     -11.309704      5832000        180            0.01301734   
     22300   298.18757      17100.31       3.8908736      5832000        180            0.01301734   
     22400   303.85133      16922.585      8.899871       5832000        180            0.01301734   
     22500   302.53958      16982.518      9.4708126      5832000        180            0.01301734   
     22600   297.01264      17114.726     -16.607179      5832000        180            0.01301734   
     22700   305.91047      16944.423     -8.1736989      5832000        180            0.01301734   
     22800   304.24456      17115.935     -2.5277607      5832000        180            0.01301734   
     22900   307.03674      17144.374     -1.7255516      5832000        180            0.01301734   
     23000   299.05877      17315.583     -9.7298001      5832000        180            0.01301734   
     23100   298.79843      17214.268     -4.5174996      5832000        180            0.01301734   
     23200   297.97145      16956.25       28.833987      5832000        180            0.01301734   
     23300   296.62127      16811.647     -2.2422963      5832000        180            0.01301734   
     23400   298.73797      17029.2       -4.0549715      5832000        180            0.01301734   
     23500   307.57861      16871.458      14.696887      5832000        180            0.01301734   
     23600   305.96118      16743.105      18.338485      5832000        180            0.01301734   
     23700   296.51824      17094.641      4.8902027      5832000        180            0.01301734   
     23800   295.34956      16981.407     -8.2900648      5832000        180            0.01301734   
     23900   297.78412      17025.213      6.9388679      5832000        180            0.01301734   
     24000   293.83658      17098.271     -3.1840579      5832000        180            0.01301734   
     24100   301.72844      17068.206      5.3615035      5832000        180            0.01301734   
     24200   303.48794      16938.977     -1.5825956      5832000        180            0.01301734   
     24300   303.83304      17173.168     -2.4889571      5832000        180            0.01301734   
     24400   304.6025       16959.405      9.563619       5832000        180            0.01301734   
     24500   299.05832      17139.713      12.82219       5832000        180            0.01301734   
     24600   301.59185      17134.1       -1.6736578      5832000        180            0.01301734   
     24700   303.27336      17010.094     -5.4715676      5832000        180            0.01301734   
     24800   304.65559      16972.755     -12.340902      5832000        180            0.01301734   
     24900   305.25365      17028.696     -2.8314173      5832000        180            0.01301734   
     25000   296.59339      17290.93       6.0078429      5832000        180            0.01301734   
     25100   299.61069      16849.753      6.6584037      5832000        180            0.01301734   
     25200   300.75038      17244.716     -1.4676709      5832000        180            0.01301734   
     25300   300.01671      17112.182     -4.542702       5832000        180            0.01301734   
     25400   303.30407      17113.852     -11.1331        5832000        180            0.01301734   
     25500   299.26156      17164.715     -5.4726264      5832000        180            0.01301734   
     25600   302.43847      17118.769     -7.0129614      5832000        180            0.01301734   
     25700   300.33057      17013.771      15.074789      5832000        180            0.01301734   
     25800   299.76958      17030.474     -11.630468      5832000        180            0.01301734   
     25900   296.39064      17123.057      2.9697641      5832000        180            0.01301734   
     26000   298.4626       17225.97      -18.134646      5832000        180            0.01301734   
     26100   307.46567      17013.55      -0.2871053      5832000        180            0.01301734   
     26200   299.6782       17304.131      3.8557602      5832000        180            0.01301734   
     26300   299.91166      17139.118      2.1508375      5832000        180            0.01301734   
     26400   299.74576      17122.452     -0.17873777     5832000        180            0.01301734   
     26500   303.09594      17179.281      7.2507002      5832000        180            0.01301734   
     26600   309.24466      16952.927     -10.225158      5832000        180            0.01301734   
     26700   300.80831      17084.488     -3.6992719      5832000        180            0.01301734   
     26800   295.45053      16954.027     -9.78238        5832000        180            0.01301734   
     26900   297.66734      16900.743      10.645832      5832000        180            0.01301734   
     27000   298.50207      16953.841      5.3351641      5832000        180            0.01301734   
     27100   299.3127       17159.987      23.821091      5832000        180            0.01301734   
     27200   300.68593      17078.165     -5.1007955      5832000        180            0.01301734   
     27300   301.06505      17233.284     -10.323849      5832000        180            0.01301734   
     27400   301.75825      17145.819      9.8511356      5832000        180            0.01301734   
     27500   299.40378      16846.639     -11.673224      5832000        180            0.01301734   
     27600   300.15806      17002.976     -4.0806072      5832000        180            0.01301734   
     27700   301.64794      17029.876     -8.1726832      5832000        180            0.01301734   
     27800   301.13447      16979.859     -4.7422289      5832000        180            0.01301734   
     27900   301.8297       17152.418     -6.2668981      5832000        180            0.01301734   
     28000   299.53507      17131.271      2.5190653      5832000        180            0.01301734   
     28100   296.24869      16859.954      13.699204      5832000        180            0.01301734   
     28200   293.39333      16958.358      0.69092908     5832000        180            0.01301734   
     28300   290.68562      16639.608      0.54478019     5832000        180            0.01301734   
     28400   295.17452      16666.941     -12.193983      5832000        180            0.01301734   
     28500   296.80621      16977.386     -5.2653405      5832000        180            0.01301734   
     28600   302.00113      16933.84      -11.397563      5832000        180            0.01301734   
     28700   293.49425      16908.828     -3.7054956      5832000        180            0.01301734   
     28800   295.95505      16709.39       1.2942977      5832000        180            0.01301734   
     28900   298.99541      16953.728      12.066941      5832000        180            0.01301734   
     29000   299.13599      17196.959      7.260603       5832000        180            0.01301734   
     29100   302.23688      16702.993      3.4615649      5832000        180            0.01301734   
     29200   302.25074      16929.678      11.2304        5832000        180            0.01301734   
     29300   296.83712      16807.147     -2.7692103      5832000        180            0.01301734   
     29400   299.38915      16910.057      0.48302599     5832000        180            0.01301734   
     29500   301.4962       16833.878      5.1157242      5832000        180            0.01301734   
     29600   306.92255      16986.663     -0.62624239     5832000        180            0.01301734   
     29700   298.86246      17113.379      14.05774       5832000        180            0.01301734   
     29800   296.6543       16970.915      11.929139      5832000        180            0.01301734   
     29900   300.28867      16787.646     -10.111998      5832000        180            0.01301734   
     30000   296.00496      16771.093     -26.801322      5832000        180            0.01301734   
     30100   306.14557      16616.121     -22.098846      5832000        180            0.01301734   
     30200   303.25348      16826.691      4.1637147      5832000        180            0.01301734   
     30300   300.07034      16656.702      1.3415973      5832000        180            0.01301734   
     30400   294.50013      16768.379     -5.3355336      5832000        180            0.01301734   
     30500   300.58597      17064.168     -17.795606      5832000        180            0.01301734   
     30600   302.22862      16861.167      4.6045185      5832000        180            0.01301734   
     30700   308.65444      16803          0.18698648     5832000        180            0.01301734   
     30800   298.02655      16786.528     -11.027946      5832000        180            0.01301734   
     30900   291.14213      16972.098     -5.8040286      5832000        180            0.01301734   
     31000   305.2782       16973.03      -6.5996229      5832000        180            0.01301734   
     31100   308.61217      16826.766     -2.3006009      5832000        180            0.01301734   
     31200   295.54516      16809.715     -7.5829657      5832000        180            0.01301734   
     31300   296.55301      16639.888      7.4465287      5832000        180            0.01301734   
     31400   300.35724      16599.397      2.7842546      5832000        180            0.01301734   
     31500   303.04867      16852.794      7.9067449      5832000        180            0.01301734   
     31600   300.85475      17055.773      22.557667      5832000        180            0.01301734   
     31700   297.12581      16910.32       4.6333076      5832000        180            0.01301734   
     31800   302.84445      16974          18.902563      5832000        180            0.01301734   
     31900   299.42611      17229.847     -11.781069      5832000        180            0.01301734   
     32000   309.44731      17156.57       23.151713      5832000        180            0.01301734   
     32100   303.85618      17015.436     -1.9427052      5832000        180            0.01301734   
     32200   302.7475       17109.96      -3.5935522      5832000        180            0.01301734   
     32300   299.48623      16854.725      6.2965329      5832000        180            0.01301734   
     32400   297.8234       16596.177     -14.978631      5832000        180            0.01301734   
     32500   295.38667      17114.333      10.420901      5832000        180            0.01301734   
     32600   302.74816      16733.892     -11.076243      5832000        180            0.01301734   
     32700   300.52341      16968.277     -13.941891      5832000        180            0.01301734   
     32800   302.82582      17055.532      6.0126442      5832000        180            0.01301734   
     32900   297.40764      17190.299      6.2611663      5832000        180            0.01301734   
     33000   303.54756      16752.624     -3.4419239      5832000        180            0.01301734   
     33100   296.60413      16921.975      0.43194929     5832000        180            0.01301734   
     33200   293.45536      17064.875      11.197464      5832000        180            0.01301734   
     33300   300.98777      17209.648     -2.1743131      5832000        180            0.01301734   
     33400   301.40168      16820.953      9.9256873      5832000        180            0.01301734   
     33500   299.92513      16983.221      0.50400568     5832000        180            0.01301734   
     33600   304.39751      16706.458     -6.0151537      5832000        180            0.01301734   
     33700   303.23184      16854.955      10.722721      5832000        180            0.01301734   
     33800   296.21004      17208.427      8.8841775      5832000        180            0.01301734   
     33900   309.81777      16883.67       4.1130754      5832000        180            0.01301734   
     34000   302.24255      16925.807     -5.1676095      5832000        180            0.01301734   
     34100   304.36474      16680.615      3.5444596      5832000        180            0.01301734   
     34200   298.05661      16800.581     -14.13725       5832000        180            0.01301734   
     34300   296.09041      16954.684     -20.277713      5832000        180            0.01301734   
     34400   296.06682      16992.306     -20.756719      5832000        180            0.01301734   
     34500   302.33392      16780.006     -2.3624698      5832000        180            0.01301734   
     34600   298.23868      17017.638      1.8450606      5832000        180            0.01301734   
     34700   298.13489      16938.25      -1.8646382      5832000        180            0.01301734   
     34800   294.67801      17146.037      1.7026279      5832000        180            0.01301734   
     34900   299.7219       16908.307     -10.266471      5832000        180            0.01301734   
     35000   301.85948      17004.611      14.680892      5832000        180            0.01301734   
     35100   298.51954      16937.666     -17.380509      5832000        180            0.01301734   
     35200   301.63038      17207.525     -8.6166449      5832000        180            0.01301734   
     35300   300.55365      16925.992     -0.021996758    5832000        180            0.01301734   
     35400   303.38834      16844.532      5.1627691      5832000        180            0.01301734   
     35500   297.87314      16967.572      3.9326854      5832000        180            0.01301734   
     35600   297.45661      16810.451      15.07844       5832000        180            0.01301734   
     35700   301.79975      16787.146      2.6581882      5832000        180            0.01301734   
     35800   299.92267      16927.082      0.57589628     5832000        180            0.01301734   
     35900   299.61759      17047.452      17.17876       5832000        180            0.01301734   
     36000   295.20185      17029.772     -11.431939      5832000        180            0.01301734   
     36100   291.70872      16938.405     -7.1057211      5832000        180            0.01301734   
     36200   299.83945      16775.169      0.056150384    5832000        180            0.01301734   
     36300   303.47414      16952.916      1.8204486      5832000        180            0.01301734   
     36400   302.37509      17023.966      6.6879426      5832000        180            0.01301734   
     36500   301.6601       16998.077     -6.1746725      5832000        180            0.01301734   
     36600   294.00619      17243.977      0.6321388      5832000        180            0.01301734   
     36700   295.02161      17352.739      4.0480432      5832000        180            0.01301734   
     36800   297.99893      16979.297     -6.8284854      5832000        180            0.01301734   
     36900   299.97007      16985.725     -11.411391      5832000        180            0.01301734   
     37000   304.92056      17090.33       0.35549013     5832000        180            0.01301734   
     37100   302.89639      17007.298     -14.775194      5832000        180            0.01301734   
     37200   308.19632      16848.005     -8.9557289      5832000        180            0.01301734   
     37300   301.25775      16810.029      15.458071      5832000        180            0.01301734   
     37400   298.52448      16888.753     -16.304721      5832000        180            0.01301734   
     37500   294.78033      17151.791     -11.162181      5832000        180            0.01301734   
     37600   302.00323      16624.257     -7.8594097      5832000        180            0.01301734   
     37700   305.26718      16694.3        3.2000837      5832000        180            0.01301734   
     37800   303.92678      16691.739      6.7392441      5832000        180            0.01301734   
     37900   300.69743      16738.551     -11.971251      5832000        180            0.01301734   
     38000   296.42587      16815.208     -0.73594297     5832000        180            0.01301734   
     38100   295.80163      16842.373     -7.9972692      5832000        180            0.01301734   
     38200   302.97249      16728.871     -13.225754      5832000        180            0.01301734   
     38300   308.71987      16764.476      9.7253963      5832000        180            0.01301734   
     38400   300.59208      17009.791     -3.854843       5832000        180            0.01301734   
     38500   301.58747      16895.982     -1.4801148      5832000        180            0.01301734   
     38600   297.8399       16683.128     -0.077304435    5832000        180            0.01301734   
     38700   299.38281      16705.154     -0.71520734     5832000        180            0.01301734   
     38800   302.81259      16931.453      14.335262      5832000        180            0.01301734   
     38900   300.90157      16546.398      3.4118454      5832000        180            0.01301734   
     39000   295.71595      17016.273      1.6122383      5832000        180            0.01301734   
     39100   307.97267      16877.068      18.649612      5832000        180            0.01301734   
     39200   305.70308      16714.523      9.2800022      5832000        180            0.01301734   
     39300   299.97324      16959.18       10.477929      5832000        180            0.01301734   
     39400   296.87096      16749.97       7.9036795      5832000        180            0.01301734   
     39500   295.41218      17004.776      6.8863368      5832000        180            0.01301734   
     39600   301.30795      17212.552      11.618959      5832000        180            0.01301734   
     39700   302.03777      17086.777      2.3356128      5832000        180            0.01301734   
     39800   301.49255      16891.459      6.1971178      5832000        180            0.01301734   
     39900   302.98933      16750.237     -18.383914      5832000        180            0.01301734   
     40000   297.1163       16817.618     -19.773397      5832000        180            0.01301734   
     40100   296.30816      16847.769     -4.495038       5832000        180            0.01301734   
     40200   301.67483      16945.907      6.6169898      5832000        180            0.01301734   
     40300   304.1937       16803.685     -7.441575       5832000        180            0.01301734   
     40400   301.74791      16991.088     -0.47117537     5832000        180            0.01301734   
     40500   300.92312      16972.794      4.3966395      5832000        180            0.01301734   
     40600   302.02178      16639.19       15.315295      5832000        180            0.01301734   
     40700   302.16139      16692.23      -2.0387652      5832000        180            0.01301734   
     40800   299.55412      16822.518      6.2221408      5832000        180            0.01301734   
     40900   304.03308      16951.833     -11.33979       5832000        180            0.01301734   
     41000   303.14297      16698.227      2.2328876      5832000        180            0.01301734   
     41100   295.77298      17108.859      20.621493      5832000        180            0.01301734   
     41200   298.40978      16685.286     -6.8415233      5832000        180            0.01301734   
     41300   300.60968      16986.066      6.5697752      5832000        180            0.01301734   
     41400   303.69662      16673.7        15.945409      5832000        180            0.01301734   
     41500   301.09054      16410.13      -10.090717      5832000        180            0.01301734   
     41600   297.78294      16499.998     -7.7585229      5832000        180            0.01301734   
     41700   298.91995      16833.371      1.8325076      5832000        180            0.01301734   
     41800   303.73789      16743.143     -25.769965      5832000        180            0.01301734   
     41900   300.26498      16683.891      2.9344822      5832000        180            0.01301734   
     42000   297.13666      16889.246      11.723869      5832000        180            0.01301734   
     42100   305.06218      16399.961     -21.508754      5832000        180            0.01301734   
     42200   299.79812      16630.79      -1.2401023      5832000        180            0.01301734   
     42300   298.0657       16702.661      8.9310372      5832000        180            0.01301734   
     42400   300.68876      16821.933     -0.36333169     5832000        180            0.01301734   
     42500   303.12147      17134.517      9.2198459      5832000        180            0.01301734   
     42600   301.29265      16925.055      5.705841       5832000        180            0.01301734   
     42700   302.82878      16781.858     -4.3992201      5832000        180            0.01301734   
     42800   301.83468      16483.568     -12.917712      5832000        180            0.01301734   
     42900   292.77824      16790.184     -9.9361231      5832000        180            0.01301734   
     43000   302.41369      16545.255     -12.006432      5832000        180            0.01301734   
     43100   293.45734      17116.564      9.4393148      5832000        180            0.01301734   
     43200   297.10768      17062.241     -5.3743632      5832000        180            0.01301734   
     43300   296.65506      16856.71       2.5570399      5832000        180            0.01301734   
     43400   302.29054      16499.7        12.449175      5832000        180            0.01301734   
     43500   300.6669       16596.635     -14.596495      5832000        180            0.01301734   
     43600   293.0405       16797.504     -6.0381395      5832000        180            0.01301734   
     43700   297.27164      16696.35      -10.279678      5832000        180            0.01301734   
     43800   302.4648       16648.199      13.970008      5832000        180            0.01301734   
     43900   299.07597      16921.602      1.2516913      5832000        180            0.01301734   
     44000   294.64669      16941.33       11.327502      5832000        180            0.01301734   
     44100   293.48584      16887.356     -5.1452702      5832000        180            0.01301734   
     44200   304.28577      16862.024     -3.981195       5832000        180            0.01301734   
     44300   303.62188      16635.067     -0.82651159     5832000        180            0.01301734   
     44400   299.00043      16855.848     -2.6858353      5832000        180            0.01301734   
     44500   300.19621      16578.185      17.428232      5832000        180            0.01301734   
     44600   298.8238       16703.376      15.58021       5832000        180            0.01301734   
     44700   295.94285      16820.654     -13.152531      5832000        180            0.01301734   
     44800   298.19366      16897.566      1.211317       5832000        180            0.01301734   
     44900   304.04612      16659.277     -4.4087414      5832000        180            0.01301734   
     45000   302.92334      16863.836      8.1639813      5832000        180            0.01301734   
     45100   299.08102      16708.285     -6.1711715      5832000        180            0.01301734   
     45200   296.64861      16615.193      0.94844816     5832000        180            0.01301734   
     45300   301.01925      16688.404     -3.776906       5832000        180            0.01301734   
     45400   299.11396      16569.545     -5.351355       5832000        180            0.01301734   
     45500   301.94133      16786.924      5.2920434      5832000        180            0.01301734   
     45600   296.15146      16796.544     -11.519715      5832000        180            0.01301734   
     45700   301.43553      16683.282      6.7582957      5832000        180            0.01301734   
     45800   298.76369      16596.389      8.9318929      5832000        180            0.01301734   
     45900   290.86051      16734.156      0.37277038     5832000        180            0.01301734   
     46000   300.61416      16524.705     -4.8599266      5832000        180            0.01301734   
     46100   302.71314      16587.517     -0.72331102     5832000        180            0.01301734   
     46200   297.76343      16848.505     -12.68915       5832000        180            0.01301734   
     46300   299.39275      16781.845      2.3422289      5832000        180            0.01301734   
     46400   299.37101      16689.351     -15.140886      5832000        180            0.01301734   
     46500   300.45742      16992.034      3.0445622      5832000        180            0.01301734   
     46600   298.76662      16580.041      5.0319679      5832000        180            0.01301734   
     46700   303.02443      16814.598      11.546058      5832000        180            0.01301734   
     46800   298.60002      16829.219     -12.375663      5832000        180            0.01301734   
     46900   305.58768      16358.8       -14.48809       5832000        180            0.01301734   
     47000   296.61849      16940.476      3.2412881      5832000        180            0.01301734   
     47100   298.6764       17091.202     -16.404955      5832000        180            0.01301734   
     47200   308.71739      16763.696     -5.876947       5832000        180            0.01301734   
     47300   304.89258      16927.495      13.610634      5832000        180            0.01301734   
     47400   301.29476      16956.166     -13.673319      5832000        180            0.01301734   
     47500   296.97202      16942.128     -6.778422       5832000        180            0.01301734   
     47600   300.24996      16849.135      8.2439143      5832000        180            0.01301734   
     47700   298.23116      16812.921      11.113563      5832000        180            0.01301734   
     47800   299.56279      16922.516     -9.8846657      5832000        180            0.01301734   
     47900   302.07637      16876.782     -11.031575      5832000        180            0.01301734   
     48000   300.09362      16774.441     -20.337915      5832000        180            0.01301734   
     48100   295.3135       16979.43       5.42333        5832000        180            0.01301734   
     48200   296.86536      16662.375     -6.837734       5832000        180            0.01301734   
     48300   302.25221      16638.139      2.9614886      5832000        180            0.01301734   
     48400   298.53062      16704.358     -1.51766        5832000        180            0.01301734   
     48500   297.70151      16713.051     -10.315687      5832000        180            0.01301734   
     48600   304.89295      16726.023      7.7229608      5832000        180            0.01301734   
     48700   298.90098      16995.901      7.0553514      5832000        180            0.01301734   
     48800   297.38022      16838.805      0.99063681     5832000        180            0.01301734   
     48900   299.70524      16527.178      2.3783378      5832000        180            0.01301734   
     49000   296.2725       16815.033      2.124796       5832000        180            0.01301734   
     49100   298.12383      16831.887     -13.769768      5832000        180            0.01301734   
     49200   301.3931       16702.588      1.3096282      5832000        180            0.01301734   
     49300   302.01463      16569.437      17.349933      5832000        180            0.01301734   
     49400   296.28733      16702.378      6.6394387      5832000        180            0.01301734   
     49500   297.4768       16489.156      20.553942      5832000        180            0.01301734   
     49600   299.0089       16713.035     -1.8876531      5832000        180            0.01301734   
     49700   305.11488      16304.057     -12.217066      5832000        180            0.01301734   
     49800   304.17576      16685.572      8.9962713      5832000        180            0.01301734   
     49900   298.99462      16600.553     -12.693188      5832000        180            0.01301734   
     50000   302.15158      16420.98       3.8808729      5832000        180            0.01301734   
     50100   298.22887      16393.706      13.197443      5832000        180            0.01301734   
     50200   298.53365      16566.177     -0.40402545     5832000        180            0.01301734   
     50300   302.89701      16523.257     -19.998183      5832000        180            0.01301734   
     50400   306.09391      16606.211      1.2618332      5832000        180            0.01301734   
     50500   298.70753      16522.635     -3.6267036      5832000        180            0.01301734   
     50600   298.4915       16417.761     -7.3733803      5832000        180            0.01301734   
     50700   293.29578      16742.94      -4.3979945      5832000        180            0.01301734   
     50800   304.59879      16649.292     -3.3143282      5832000        180            0.01301734   
     50900   300.20838      16628.177     -7.621713       5832000        180            0.01301734   
     51000   296.65339      16740.382     -2.4793799      5832000        180            0.01301734   
     51100   304.06233      16391.8       -10.441855      5832000        180            0.01301734   
     51200   296.72917      16680.435      10.661666      5832000        180            0.01301734   
     51300   296.30317      16682.713     -3.1129325      5832000        180            0.01301734   
     51400   297.28948      16351.299     -18.893614      5832000        180            0.01301734   
     51500   304.6202       16255.01       5.6976246      5832000        180            0.01301734   
     51600   298.34548      16649.292     -18.277624      5832000        180            0.01301734   
     51700   303.62732      16775.588      17.931174      5832000        180            0.01301734   
     51800   302.97634      16504.976      0.93321856     5832000        180            0.01301734   
     51900   299.04959      16292.239      5.0705287      5832000        180            0.01301734   
     52000   303.15243      16540.741      2.825965       5832000        180            0.01301734   
     52100   294.81426      16654.991     -1.4448771      5832000        180            0.01301734   
     52200   305.57202      16469.122     -14.735164      5832000        180            0.01301734   
     52300   302.59937      16612.193     -3.9613343      5832000        180            0.01301734   
     52400   300.04781      16789.435      13.509587      5832000        180            0.01301734   
     52500   301.69955      16574.621      10.641261      5832000        180            0.01301734   
     52600   301.16857      16408.376      3.8830556      5832000        180            0.01301734   
     52700   298.66806      16474.772     -1.97265        5832000        180            0.01301734   
     52800   297.73803      16429.819     -4.8742032      5832000        180            0.01301734   
     52900   303.71746      16785.26       13.739985      5832000        180            0.01301734   
     53000   304.41625      16734.289      2.9955065      5832000        180            0.01301734   
     53100   295.01995      16771.106      1.8347158      5832000        180            0.01301734   
     53200   300.74497      16482.569     -3.7157726      5832000        180            0.01301734   
     53300   297.21015      16712.822     -4.4368752      5832000        180            0.01301734   
     53400   307.04711      16624.975      23.628906      5832000        180            0.01301734   
     53500   302.98763      16854.667      0.035088485    5832000        180            0.01301734   
     53600   302.80551      16307.254     -17.320401      5832000        180            0.01301734   
     53700   298.66596      16552.336     -0.46086135     5832000        180            0.01301734   
     53800   305.8964       16813.68      -3.495906       5832000        180            0.01301734   
     53900   305.18747      16608.698      9.5499755      5832000        180            0.01301734   
     54000   299.91154      16502.778     -21.158025      5832000        180            0.01301734   
     54100   297.78193      16479.074     -15.843959      5832000        180            0.01301734   
     54200   298.72162      16478.787     -4.0212662      5832000        180            0.01301734   
     54300   299.56662      16547.022     -0.87112062     5832000        180            0.01301734   
     54400   303.97369      16862.758     -0.18275916     5832000        180            0.01301734   
     54500   303.78822      16874.011      6.223579       5832000        180            0.01301734   
     54600   302.44151      16571.608      6.570175       5832000        180            0.01301734   
     54700   292.70521      16720.411     -0.43812648     5832000        180            0.01301734   
     54800   301.77792      16603.237     -1.7045882      5832000        180            0.01301734   
     54900   298.17957      16616.734      0.39906601     5832000        180            0.01301734   
     55000   298.19712      16693.72       10.97397       5832000        180            0.01301734   
     55100   305.11386      16721.971      11.505247      5832000        180            0.01301734   
     55200   298.87557      16653.246     -13.822514      5832000        180            0.01301734   
     55300   296.31022      16659.452      4.637903       5832000        180            0.01301734   
     55400   298.55423      16437.972     -6.483458       5832000        180            0.01301734   
     55500   301.1166       16271.743      8.9887517      5832000        180            0.01301734   
     55600   300.04354      16253.412     -8.5365106      5832000        180            0.01301734   
     55700   304.23763      16586.288     -17.432422      5832000        180            0.01301734   
     55800   302.11206      16452.526     -6.7589034      5832000        180            0.01301734   
     55900   300.97335      16448.955     -11.934616      5832000        180            0.01301734   
     56000   298.07386      16589.931     -17.558018      5832000        180            0.01301734   
     56100   293.59166      16948.271      15.356711      5832000        180            0.01301734   
     56200   302.2626       16669.012     -1.4418575      5832000        180            0.01301734   
     56300   301.66007      16748.536     -3.5347953      5832000        180            0.01301734   
     56400   296.41461      16616.335     -15.442749      5832000        180            0.01301734   
     56500   298.5517       16808.052      16.134966      5832000        180            0.01301734   
     56600   300.2225       16516.449     -14.540427      5832000        180            0.01301734   
     56700   297.80767      16596.406     -17.23327       5832000        180            0.01301734   
     56800   300.23459      16585.124      8.896458       5832000        180            0.01301734   
     56900   299.38132      16640.191      4.7226385      5832000        180            0.01301734   
     57000   299.33699      16795.474     -5.8134014      5832000        180            0.01301734   
     57100   298.28676      16409.352     -4.2802442      5832000        180            0.01301734   
     57200   301.22914      16524.237      11.391977      5832000        180            0.01301734   
     57300   299.39597      16808.103     -0.27255785     5832000        180            0.01301734   
     57400   299.66959      16631.106     -3.9132612      5832000        180            0.01301734   
     57500   302.85778      16715.668      5.3780302      5832000        180            0.01301734   
     57600   305.54493      16792.111      0.49755442     5832000        180            0.01301734   
     57700   294.33627      16446.007     -18.938329      5832000        180            0.01301734   
     57800   295.03398      16484.256      9.7937185      5832000        180            0.01301734   
     57900   296.50609      16515.736     -11.545465      5832000        180            0.01301734   
     58000   302.45338      16632.345     -5.4868364      5832000        180            0.01301734   
     58100   305.64746      16598.701      12.415149      5832000        180            0.01301734   
     58200   291.69316      17045.57      -2.3708535      5832000        180            0.01301734   
     58300   300.38542      16454.591     -0.38221613     5832000        180            0.01301734   
     58400   303.59073      16547.349     -9.1051571      5832000        180            0.01301734   
     58500   297.54221      16548.642      5.8317978      5832000        180            0.01301734   
     58600   300.91607      16614.077      2.5606317      5832000        180            0.01301734   
     58700   304.93632      16641.883      1.6795704      5832000        180            0.01301734   
     58800   304.14394      16307.402     -22.686181      5832000        180            0.01301734   
     58900   300.76718      16576.026     -8.3219253      5832000        180            0.01301734   
     59000   296.9028       16601.808      16.653379      5832000        180            0.01301734   
     59100   302.12245      16451.287      10.956876      5832000        180            0.01301734   
     59200   296.11887      16730.546     -15.872871      5832000        180            0.01301734   
     59300   302.64156      16744.021     -5.983593       5832000        180            0.01301734   
     59400   303.45772      16692.22      -9.6111744      5832000        180            0.01301734   
     59500   295.3772       16638.537     -13.921727      5832000        180            0.01301734   
     59600   296.66566      16667.937      5.9266012      5832000        180            0.01301734   
     59700   301.88615      16314.383     -8.6139365      5832000        180            0.01301734   
     59800   303.33144      16578.459     -3.0549741      5832000        180            0.01301734   
     59900   299.00294      16551.372     -11.896056      5832000        180            0.01301734   
     60000   305.17572      16583.821      1.273979       5832000        180            0.01301734   
     60100   299.94239      16719.67       0.022791167    5832000        180            0.01301734   
     60200   296.67623      16735.126     -0.059677544    5832000        180            0.01301734   
     60300   296.28276      16501.233      10.358921      5832000        180            0.01301734   
     60400   301.73425      16294.236      5.0417992      5832000        180            0.01301734   
     60500   298.09282      16655.14       7.5034287      5832000        180            0.01301734   
     60600   300.05724      16725.636      0.038685205    5832000        180            0.01301734   
     60700   308.06039      16664.153      7.8137761      5832000        180            0.01301734   
     60800   297.05321      16584.774      10.301342      5832000        180            0.01301734   
     60900   295.49484      16807.572     -3.4255615      5832000        180            0.01301734   
     61000   297.54791      16389.816     -4.1888565      5832000        180            0.01301734   
     61100   302.19353      16774.432     -7.2068647      5832000        180            0.01301734   
     61200   303.73854      16670.702      10.925572      5832000        180            0.01301734   
     61300   299.0865       16671.618      8.6254001      5832000        180            0.01301734   
     61400   294.94226      16623.489      6.9265618      5832000        180            0.01301734   
     61500   301.09505      16414.512     -3.7607661      5832000        180            0.01301734   
     61600   298.84288      16817          18.049679      5832000        180            0.01301734   
     61700   304.06277      16628.376      9.5931487      5832000        180            0.01301734   
     61800   300.94588      16700.664      0.60633061     5832000        180            0.01301734   
     61900   299.76709      16744.902      3.3240988      5832000        180            0.01301734   
     62000   300.28744      16584.2        2.9893025      5832000        180            0.01301734   
     62100   295.94825      16539.482      10.29276       5832000        180            0.01301734   
     62200   297.92477      16346.656      5.5445787      5832000        180            0.01301734   
     62300   299.01593      16500.405     -8.4342634      5832000        180            0.01301734   
     62400   298.768        16792.356     -0.38523916     5832000        180            0.01301734   
     62500   302.27759      16672.111     -0.71894923     5832000        180            0.01301734   
     62600   297.80566      16536.321     -6.0849951      5832000        180            0.01301734   
     62700   303.11285      16503.951     -11.185448      5832000        180            0.01301734   
     62800   301.64988      16315.601      9.410772       5832000        180            0.01301734   
     62900   301.81411      16601.16       7.6761009      5832000        180            0.01301734   
     63000   305.48775      16535.709      8.1952936      5832000        180            0.01301734   
     63100   299.20952      16664.484      7.2819254      5832000        180            0.01301734   
     63200   296.91638      16422.702      2.9912745      5832000        180            0.01301734   
     63300   297.92019      16503.302     -0.90711156     5832000        180            0.01301734   
     63400   299.48517      16814.577      2.1709374      5832000        180            0.01301734   
     63500   299.86537      16572.247      8.1151971      5832000        180            0.01301734   
     63600   305.00958      16456.956     -5.5370365      5832000        180            0.01301734   
     63700   293.77811      16591.616      14.390966      5832000        180            0.01301734   
     63800   299.97601      16347.333     -8.9124614      5832000        180            0.01301734   
     63900   300.15141      16650.053      0.34540817     5832000        180            0.01301734   
     64000   299.32351      16648.965      1.0001658      5832000        180            0.01301734   
     64100   300.90078      16896.698      0.08115578     5832000        180            0.01301734   
     64200   295.92965      16708.328     -2.303536       5832000        180            0.01301734   
     64300   294.89094      16455.073     -6.8889884      5832000        180            0.01301734   
     64400   294.52439      16553.06      -4.6585314      5832000        180            0.01301734   
     64500   299.32983      16490.467      10.972799      5832000        180            0.01301734   
     64600   303.68444      16364.692      3.1089182      5832000        180            0.01301734   
     64700   296.8354       16607.008     -2.9446966      5832000        180            0.01301734   
     64800   304.49718      16350.01      -14.400039      5832000        180            0.01301734   
     64900   309.29552      16347.843     -0.37117006     5832000        180            0.01301734   
     65000   305.67529      16265.604     -11.477843      5832000        180            0.01301734   
     65100   302.03982      16560.471      16.162496      5832000        180            0.01301734   
     65200   295.71163      16659.925      6.5500776      5832000        180            0.01301734   
     65300   302.97402      16433.076      8.5742902      5832000        180            0.01301734   
     65400   301.66778      16266.434     -9.8286558      5832000        180            0.01301734   
     65500   300.20139      16553.727     -1.7071964      5832000        180            0.01301734   
     65600   305.07904      16409.138     -2.4465699      5832000        180            0.01301734   
     65700   295.61684      16454.317      7.8016749      5832000        180            0.01301734   
     65800   297.86907      16462.879     -13.422446      5832000        180            0.01301734   
     65900   293.36846      16628.061     -9.6321735      5832000        180            0.01301734   
     66000   302.26786      16574.735      6.2034393      5832000        180            0.01301734   
     66100   306.65899      16819.726     -6.5812108      5832000        180            0.01301734   
     66200   306.07679      16568.818     -3.1798997      5832000        180            0.01301734   
     66300   297.96254      16520.647     -8.7100231      5832000        180            0.01301734   
     66400   297.69532      16434.124     -13.77462       5832000        180            0.01301734   
     66500   301.5187       16448.318     -2.971251       5832000        180            0.01301734   
     66600   301.12839      16434.1       -5.307177       5832000        180            0.01301734   
     66700   302.09797      16414.692      1.8437539      5832000        180            0.01301734   
     66800   300.87417      16422.82      -18.501196      5832000        180            0.01301734   
     66900   302.03758      16416.087     -5.9381781      5832000        180            0.01301734   
     67000   299.19902      16477.113      1.5345183      5832000        180            0.01301734   
     67100   297.22875      16327.021      0.44810618     5832000        180            0.01301734   
     67200   297.26413      16287.459     -8.772142       5832000        180            0.01301734   
     67300   298.67682      16347.414     -9.678713       5832000        180            0.01301734   
     67400   307.69606      16178.442     -6.4250937      5832000        180            0.01301734   
     67500   302.46834      16356.689     -3.5985449      5832000        180            0.01301734   
     67600   300.63593      16711.202      6.1033531      5832000        180            0.01301734   
     67700   298.20985      16497.241     -5.15669        5832000        180            0.01301734   
     67800   297.71937      16744.371     -16.598972      5832000        180            0.01301734   
     67900   306.52952      16327.777     -4.7138554      5832000        180            0.01301734   
     68000   307.80149      16488.108      5.6227823      5832000        180            0.01301734   
     68100   302.99431      16660.081      14.577922      5832000        180            0.01301734   
     68200   301.03913      16258.821      6.6303133      5832000        180            0.01301734   
     68300   300.10891      16280.944      2.3993104      5832000        180            0.01301734   
     68400   296.24857      16454.176      6.202209       5832000        180            0.01301734   
     68500   295.87516      16540.337      13.725739      5832000        180            0.01301734   
     68600   301.93274      16682.104     -9.7402066      5832000        180            0.01301734   
     68700   307.90327      16583.799      13.319504      5832000        180            0.01301734   
     68800   305.10877      16424.815      19.755449      5832000        180            0.01301734   
     68900   303.443        16467.472      9.542248       5832000        180            0.01301734   
     69000   301.83769      16688.42      -10.668805      5832000        180            0.01301734   
     69100   298.36949      16755.864      0.6266268      5832000        180            0.01301734   
     69200   304.10924      16373.463      5.2593091      5832000        180            0.01301734   
     69300   299.77716      16190.948     -1.2209467      5832000        180            0.01301734   
     69400   301.69779      16415.181     -11.290114      5832000        180            0.01301734   
     69500   293.34789      16304.189     -8.0467875      5832000        180            0.01301734   
     69600   295.27038      16587.337      11.488338      5832000        180            0.01301734   
     69700   301.35699      16266.621     -12.79584       5832000        180            0.01301734   
     69800   303.20556      16149.744     -14.801125      5832000        180            0.01301734   
     69900   302.34088      16126.158      1.8217407      5832000        180            0.01301734   
     70000   298.30562      16416.333      0.39446512     5832000        180            0.01301734   
     70100   301.48404      16496.736      3.8002657      5832000        180            0.01301734   
     70200   298.64364      16237.459     -13.334166      5832000        180            0.01301734   
     70300   301.60983      16554.813      6.4138174      5832000        180            0.01301734   
     70400   301.50406      16711.222     -11.810474      5832000        180            0.01301734   
     70500   302.01532      16544.569     -1.3200714      5832000        180            0.01301734   
     70600   301.07249      16248.262     -6.4049342      5832000        180            0.01301734   
     70700   299.50756      16225.587      2.7660804      5832000        180            0.01301734   
     70800   297.80357      16122.292     -9.0990895      5832000        180            0.01301734   
     70900   300.32203      16230.232     -15.185329      5832000        180            0.01301734   
     71000   300.04459      16521.057      12.915876      5832000        180            0.01301734   
     71100   294.44772      16525.363      6.9008983      5832000        180            0.01301734   
     71200   309.01442      16269.147      14.409695      5832000        180            0.01301734   
     71300   297.68566      16656.193      3.4775956      5832000        180            0.01301734   
     71400   296.68847      16402.285     -1.9407173      5832000        180            0.01301734   
     71500   300.33318      16306.373      3.3791729      5832000        180            0.01301734   
     71600   301.77319      16298.3        3.7724532      5832000        180            0.01301734   
     71700   302.94661      16580.525      3.9273876      5832000        180            0.01301734   
     71800   303.80829      16901.912     -6.4450452      5832000        180            0.01301734   
     71900   305.44806      16364.182     -6.7528413      5832000        180            0.01301734   
     72000   299.79782      16560.681     -1.4656583      5832000        180            0.01301734   
     72100   300.41881      16187.333     -5.3971242      5832000        180            0.01301734   
     72200   294.68753      16554.302     -1.6877211      5832000        180            0.01301734   
     72300   302.49119      16367.897     -3.1448301      5832000        180            0.01301734   
     72400   304.40078      16386.01       8.9449429      5832000        180            0.01301734   
     72500   305.26356      16559.472      13.410452      5832000        180            0.01301734   
     72600   300.65248      16386.421      9.4368532      5832000        180            0.01301734   
     72700   300.36208      16495.699      3.4304214      5832000        180            0.01301734   
     72800   301.57795      16075.14       2.8134591      5832000        180            0.01301734   
     72900   300.35846      16557.259      16.154646      5832000        180            0.01301734   
     73000   303.15803      16154.892      8.8290535      5832000        180            0.01301734   
     73100   304.20445      16231.373      1.1642876      5832000        180            0.01301734   
     73200   306.7203       16146.606     -15.382903      5832000        180            0.01301734   
     73300   300.06737      16314.856      3.1477067      5832000        180            0.01301734   
     73400   297.31004      16471.682      2.9763179      5832000        180            0.01301734   
     73500   304.33394      16423.579      9.6381092      5832000        180            0.01301734   
     73600   297.21998      16548.176     -1.7731186      5832000        180            0.01301734   
     73700   304.71548      16468.884      5.2962146      5832000        180            0.01301734   
     73800   298.02215      16674.245     -9.8893433      5832000        180            0.01301734   
[...]
    291000   304.43046      15597.864     -11.66522       5832000        180            0.01301734   
    291100   288.37737      15355.049     -4.8971438      5832000        180            0.01301734   
    291200   302.30584      15071.94      -16.089702      5832000        180            0.01301734   
    291300   300.39142      15362.845      1.4732811      5832000        180            0.01301734   
    291400   298.30956      15815.846     -13.850556      5832000        180            0.01301734   
    291500   301.80505      15345.463     -14.941997      5832000        180            0.01301734   
    291600   301.46545      15545.347      7.2423918      5832000        180            0.01301734   
    291700   293.03161      15498.06      -3.0902198      5832000        180            0.01301734   
    291800   300.29551      15630.96       2.5736701      5832000        180            0.01301734   
    291900   295.53799      15743.018     -24.934505      5832000        180            0.01301734   
    292000   305.67509      15529.448     -4.2974924      5832000        180            0.01301734   
    292100   303.40831      15724.672      17.288708      5832000        180            0.01301734   
    292200   300.25778      15635.672     -2.6617985      5832000        180            0.01301734   
    292300   297.14878      15650.63       3.3694999      5832000        180            0.01301734   
    292400   298.78674      15680.502     -17.992121      5832000        180            0.01301734   
    292500   309.57318      15769.147     -12.778577      5832000        180            0.01301734   
    292600   304.59962      15586.426      6.8391392      5832000        180            0.01301734   
    292700   306.3938       15423.435     -15.96714       5832000        180            0.01301734   
    292800   288.89222      15800.36       1.7157138      5832000        180            0.01301734   
    292900   299.89108      15220.414     -14.716032      5832000        180            0.01301734   
    293000   299.38764      15848.684      2.8142769      5832000        180            0.01301734   
    293100   300.54939      15709.323      8.5883044      5832000        180            0.01301734   
    293200   304.38513      15466.12       6.4967287      5832000        180            0.01301734   
    293300   307.75786      15435.51       13.464344      5832000        180            0.01301734   
    293400   300.54515      15603.455     -2.881435       5832000        180            0.01301734   
    293500   303.50172      15748.822     -14.741053      5832000        180            0.01301734   
    293600   306.85975      15832.629     -9.7496984      5832000        180            0.01301734   
    293700   298.16683      15875.31      -6.8119306      5832000        180            0.01301734   
    293800   291.9675       15701.354      1.3296046      5832000        180            0.01301734   
    293900   297.35237      15412.39       4.8444452      5832000        180            0.01301734   
    294000   296.68316      15860.493     -19.413308      5832000        180            0.01301734   
    294100   290.99652      15792.652     -5.1729743      5832000        180            0.01301734   
    294200   297.82678      15889.099     -10.27394       5832000        180            0.01301734   
    294300   306.35996      15562.035      16.018636      5832000        180            0.01301734   
    294400   299.62545      15413.772     -12.184475      5832000        180            0.01301734   
    294500   297.04582      15504.732      11.561497      5832000        180            0.01301734   
    294600   290.27899      15505.311     -11.087873      5832000        180            0.01301734   
    294700   293.99354      15683.313      12.271309      5832000        180            0.01301734   
    294800   298.58135      15654.707      6.3242968      5832000        180            0.01301734   
    294900   295.49555      15709.628      6.0571955      5832000        180            0.01301734   
    295000   307.25063      15786.949      20.036777      5832000        180            0.01301734   
    295100   296.72665      15849.776      11.39456       5832000        180            0.01301734   
    295200   298.59684      15637.154      2.0316215      5832000        180            0.01301734   
    295300   299.48887      15833.715      17.035203      5832000        180            0.01301734   
    295400   302.70453      15684.047     -4.4777548      5832000        180            0.01301734   
    295500   314.75413      15364.115      1.4817258      5832000        180            0.01301734   
    295600   301.30544      15425.049     -4.879994       5832000        180            0.01301734   
    295700   292.33811      15836.08      -2.5281091      5832000        180            0.01301734   
    295800   305.73154      15450.467      11.759573      5832000        180            0.01301734   
    295900   306.15126      15652.794      2.3764751      5832000        180            0.01301734   
    296000   298.9461       15660.524     -3.8148019      5832000        180            0.01301734   
    296100   295.81125      15760.781     -2.0170277      5832000        180            0.01301734   
    296200   302.77616      16077.863     -15.440165      5832000        180            0.01301734   
    296300   309.74829      15679.262     -20.336742      5832000        180            0.01301734   
    296400   297.02077      15958.011      0.08404114     5832000        180            0.01301734   
    296500   305.29938      15699.943     -9.8874385      5832000        180            0.01301734   
    296600   299.15671      15869.361     -9.077814       5832000        180            0.01301734   
    296700   300.67647      15810.094     -3.9701164      5832000        180            0.01301734   
    296800   296.14007      15962.935     -5.2003163      5832000        180            0.01301734   
    296900   312.06202      15553.414      2.9729413      5832000        180            0.01301734   
    297000   300.38409      15907.579     -7.0853912      5832000        180            0.01301734   
    297100   288.49364      16335.063     -12.347426      5832000        180            0.01301734   
    297200   293.91209      15954.072     -13.373771      5832000        180            0.01301734   
    297300   304.64111      15719.136      8.7626058      5832000        180            0.01301734   
    297400   316.60526      15509.029     -1.3520369      5832000        180            0.01301734   
    297500   295.54313      15744.718     -10.289842      5832000        180            0.01301734   
    297600   297.41463      15754.624      1.5638772      5832000        180            0.01301734   
    297700   289.67874      16199.926     -5.1533976      5832000        180            0.01301734   
    297800   303.97283      15639.112      15.037815      5832000        180            0.01301734   
    297900   297.86711      15575.053     -4.4038018      5832000        180            0.01301734   
    298000   296.27368      15589.402     -1.3155188      5832000        180            0.01301734   
    298100   299.86008      15734.721      4.215144       5832000        180            0.01301734   
    298200   302.43079      15836.253     -3.2829948      5832000        180            0.01301734   
    298300   302.66751      15136.372      0.20230323     5832000        180            0.01301734   
    298400   298.35291      15942.042      0.26657085     5832000        180            0.01301734   
    298500   309.23608      15328.717      9.3399627      5832000        180            0.01301734   
    298600   294.23313      15539.116     -4.3548374      5832000        180            0.01301734   
    298700   303.58979      15509.247     -6.0331859      5832000        180            0.01301734   
    298800   303.28977      15679.125     -15.536092      5832000        180            0.01301734   
    298900   302.9306       15424.471      4.4356231      5832000        180            0.01301734   
    299000   293.84247      15546.252     -23.918784      5832000        180            0.01301734   
    299100   290.97938      15629.828      13.166808      5832000        180            0.01301734   
    299200   316.25698      15568.45       0.84226184     5832000        180            0.01301734   
    299300   295.32085      16095.677     -16.073733      5832000        180            0.01301734   
    299400   295.2376       15880.002     -15.025302      5832000        180            0.01301734   
    299500   296.30298      15687.693     -10.124847      5832000        180            0.01301734   
    299600   298.65421      15249.235     -13.950848      5832000        180            0.01301734   
    299700   300.90851      15897.85      -18.211587      5832000        180            0.01301734   
    299800   302.47558      15750.614     -13.284935      5832000        180            0.01301734   
    299900   296.50451      15957.412     -4.0282737      5832000        180            0.01301734   
    300000   307.14671      15958.446      6.7595505      5832000        180            0.01301734   
    300100   302.15009      15836.345     -4.248088       5832000        180            0.01301734   
    300200   298.63971      16182.551     -11.650461      5832000        180            0.01301734   
    300300   299.51834      15725.797      14.194063      5832000        180            0.01301734   
    300400   295.29866      15616.555     -8.4404279      5832000        180            0.01301734   
    300500   300.33006      15603.169      12.891568      5832000        180            0.01301734   
    300600   301.54842      15361.511     -7.6992258      5832000        180            0.01301734   
    300700   301.04107      15656.88      -11.05762       5832000        180            0.01301734   
    300800   297.26065      15569.18      -2.5009312      5832000        180            0.01301734   
    300900   298.5262       15684.824      14.104385      5832000        180            0.01301734   
    301000   302.50732      15292.937      0.65255672     5832000        180            0.01301734   
    301100   304.66266      15606.313      11.008377      5832000        180            0.01301734   
    301200   299.77887      15850.186     -7.9532622      5832000        180            0.01301734   
    301300   297.84352      15729.989      5.5286757      5832000        180            0.01301734   
    301400   307.35235      15624.6        1.9049326      5832000        180            0.01301734   
    301500   303.40799      15758.559     -4.1329675      5832000        180            0.01301734   
    301600   297.4406       16088.549      1.662441       5832000        180            0.01301734   
    301700   308.69395      16100.737      5.2870028      5832000        180            0.01301734   
    301800   301.73654      15541.744      14.19981       5832000        180            0.01301734   
    301900   303.18999      15477.486     -20.530997      5832000        180            0.01301734   
    302000   293.76008      16176.033     -0.41907694     5832000        180            0.01301734   
    302100   300.48287      15828.688     -5.1894884      5832000        180            0.01301734   
    302200   303.73243      15419.876      6.8410491      5832000        180            0.01301734   
    302300   306.45825      15644.269     -19.642233      5832000        180            0.01301734   
    302400   304.83602      15412.664      0.28210869     5832000        180            0.01301734   
    302500   300.38516      15384.082     -3.7628144      5832000        180            0.01301734   
    302600   306.16049      15659.277      8.9354583      5832000        180            0.01301734   
    302700   304.47982      15895.402     -9.4307796      5832000        180            0.01301734   
    302800   291.14142      16126.332     -4.8365783      5832000        180            0.01301734   
    302900   308.73155      15658.826     -15.846943      5832000        180            0.01301734   
    303000   305.76243      15675.477      9.1430472      5832000        180            0.01301734   
    303100   293.33019      15774.362     -1.6261239      5832000        180            0.01301734   
    303200   303.06241      15445.527     -6.2662901      5832000        180            0.01301734   
    303300   287.83054      15927.759     -9.3783196      5832000        180            0.01301734   
    303400   289.57869      15689.345      3.4849607      5832000        180            0.01301734   
    303500   297.35143      15435.185     -7.6998625      5832000        180            0.01301734   
    303600   299.41202      15951.546     -7.0194406      5832000        180            0.01301734   
    303700   299.4294       15880.194     -6.4023121      5832000        180            0.01301734   
    303800   295.38563      15854.889      6.7183392      5832000        180            0.01301734   
    303900   288.06046      15709.512      4.3144235      5832000        180            0.01301734   
    304000   297.17716      15519.773     -10.371554      5832000        180            0.01301734   
    304100   306.10177      15491.11       4.5160372      5832000        180            0.01301734   
    304200   303.28395      15646.331      20.896276      5832000        180            0.01301734   
    304300   298.64342      15280.477     -7.1231286      5832000        180            0.01301734   
    304400   305.17671      15346.819     -17.18105       5832000        180            0.01301734   
    304500   295.85851      15638.786     -5.1061552      5832000        180            0.01301734   
    304600   290.32357      15699.173     -8.1585924      5832000        180            0.01301734   
    304700   297.23923      15713.021      14.769948      5832000        180            0.01301734   
    304800   298.85637      15412.8       -9.9683746      5832000        180            0.01301734   
    304900   306.39919      15688.732      8.8917687      5832000        180            0.01301734   
    305000   299.50279      15739.584      17.723547      5832000        180            0.01301734   
    305100   302.19114      15430.032      3.8564769      5832000        180            0.01301734   
    305200   295.98658      15489.3        8.1457668      5832000        180            0.01301734   
    305300   293.24702      15456.095     -16.702542      5832000        180            0.01301734   
    305400   304.49449      15397.691     -3.8470062      5832000        180            0.01301734   
    305500   301.72728      15716.547      7.4469861      5832000        180            0.01301734   
    305600   302.17759      15426.211     -11.589919      5832000        180            0.01301734   
    305700   305.29537      15741.642     -8.9638828      5832000        180            0.01301734   
    305800   309.14402      15830.395     -3.1239087      5832000        180            0.01301734   
    305900   302.98795      15908.229      5.1952307      5832000        180            0.01301734   
    306000   297.51406      15716.274     -3.7692288      5832000        180            0.01301734   
    306100   296.44714      15639.111     -15.034553      5832000        180            0.01301734   
    306200   309.80483      15490.758     -7.8963241      5832000        180            0.01301734   
    306300   302.06526      15742.605      4.1879508      5832000        180            0.01301734   
    306400   304.7925       15537.346     -4.4456292      5832000        180            0.01301734   
    306500   298.02424      15393.559     -11.676376      5832000        180            0.01301734   
    306600   295.74956      15584.224     -0.37451556     5832000        180            0.01301734   
    306700   295.49887      15319.024     -2.3844595      5832000        180            0.01301734   
    306800   299.57176      15675.039      11.438267      5832000        180            0.01301734   
    306900   292.75458      15961.87       11.818258      5832000        180            0.01301734   
    307000   304.35743      15660.046      7.772538       5832000        180            0.01301734   
    307100   307.85964      15475.607      23.222618      5832000        180            0.01301734   
    307200   296.16908      15766.928      4.0060181      5832000        180            0.01301734   
    307300   295.14923      15865.003      9.7684803      5832000        180            0.01301734   
    307400   303.81651      15772.346     -7.1790725      5832000        180            0.01301734   
    307500   299.61307      15772.809     -16.5735        5832000        180            0.01301734   
    307600   291.90947      15704.82      -2.1147999      5832000        180            0.01301734   
    307700   294.03824      15595.393     -12.73937       5832000        180            0.01301734   
    307800   297.23026      15380.131     -0.19609878     5832000        180            0.01301734   
    307900   299.99793      15412.704      0.025815998    5832000        180            0.01301734   
    308000   295.95132      15249.005     -15.918573      5832000        180            0.01301734   
    308100   293.82753      15380.132      4.6084427      5832000        180            0.01301734   
    308200   294.82597      15302.712     -7.8120789      5832000        180            0.01301734   
    308300   295.93469      15325.871     -8.8823603      5832000        180            0.01301734   
    308400   297.59214      15369.909     -11.001899      5832000        180            0.01301734   
    308500   300.64139      15530.428      1.4674055      5832000        180            0.01301734   
    308600   297.2539       15183.626     -19.442627      5832000        180            0.01301734   
    308700   294.50451      15499.355      1.2923539      5832000        180            0.01301734   
    308800   307.80504      14808.225      0.9473786      5832000        180            0.01301734   
    308900   294.39018      15220.079      5.4647524      5832000        180            0.01301734   
    309000   302.30247      14940.291      13.453226      5832000        180            0.01301734   
    309100   302.86282      15027.875     -10.139902      5832000        180            0.01301734   
    309200   298.13862      15262.754      9.1243193      5832000        180            0.01301734   
    309300   313.54509      15498.817      13.87524       5832000        180            0.01301734   
    309400   299.58168      14870.196     -7.9438129      5832000        180            0.01301734   
    309500   299.86899      14979.078     -3.7647562      5832000        180            0.01301734   
    309600   299.00681      15243.303     -4.6174291      5832000        180            0.01301734   
    309700   302.09755      15213.409      4.6506378      5832000        180            0.01301734   
    309800   306.21737      14885.056     -7.386658       5832000        180            0.01301734   
    309900   309.85653      14873.814      5.0726776      5832000        180            0.01301734   
    310000   301.87925      15116.707     -6.014063       5832000        180            0.01301734   
    310100   305.63171      15089.83      -6.5439039      5832000        180            0.01301734   
    310200   299.96185      14991.164     -16.604324      5832000        180            0.01301734   
    310300   312.69442      15041.847      12.392527      5832000        180            0.01301734   
ERROR on proc 0: Bond atoms 5618 5619 missing on proc 0 at step 310398 (src/ntopo_bond_all.cpp:59)
Last command: run			400000
