LAMMPS (15 Sep 2022)
OMP_NUM_THREADS environment is not set. Defaulting to 1 thread. (src/comm.cpp:98)
  using 1 OpenMP thread(s) per MPI task
Loaded 1 plugins from C:\Users\HP\AppData\Local\LAMMPS 64-bit 15Sep2022\plugins
package omp 0
using multi-threaded neighbor list subroutines
package omp 4
set 4 OpenMP thread(s) per MPI task
using multi-threaded neighbor list subroutines
# Initialization
units			real
dimension		3
processors		* * *
boundary		p p p
atom_style		full
pair_style		lj/cut/coul/cut 10.0
bond_style		harmonic
angle_style 	harmonic
dihedral_style  harmonic
read_data		PVA_NP_OXY_LARGE_INPUT_WITH_CHARGE.data
Reading data file ...
  orthogonal box = (-8.456496 2.8345 -0.824502) to (171.5435 182.8345 179.1755)
  1 by 1 by 1 MPI processor grid
  reading atoms ...
  6064 atoms
  reading velocities ...
  6064 velocities
  scanning bonds ...
  4 = max bonds/atom
  scanning angles ...
  6 = max angles/atom
  scanning dihedrals ...
  12 = max dihedrals/atom
  reading bonds ...
  6060 bonds
  reading angles ...
  11096 angles
  reading dihedrals ...
  17688 dihedrals
Finding 1-2 1-3 1-4 neighbors ...
  special bond factors lj:    0        0        0       
  special bond factors coul:  0        0        0       
     4 = max # of 1-2 neighbors
     7 = max # of 1-3 neighbors
    16 = max # of 1-4 neighbors
    20 = max # of special neighbors
  special bonds CPU = 0.005 seconds
  read_data CPU = 0.183 seconds

#output

thermo			100
thermo_style	custom step temp pe press vol lx density
#dump			1 all custom 100 before_cross_linking.lammpstrj id type x y z
timestep 1

#initial minimization
minimize                1.0e-5 1.0e-5 10000 10000
Switching to 'neigh_modify every 1 delay 0 check yes' setting during minimization
Generated 78 of 78 mixed pair_coeff terms from geometric mixing rule
Last active /omp style is dihedral_style harmonic/omp
Neighbor list info ...
  update: every = 1 steps, delay = 0 steps, check = yes
  max neighbors/atom: 2000, page size: 100000
  master list distance cutoff = 12
  ghost atom cutoff = 12
  binsize = 6, bins = 30 30 30
  1 neighbor lists, perpetual/occasional/extra = 1 0 0
  (1) pair lj/cut/coul/cut/omp, perpetual
      attributes: half, newton on, omp
      pair build: half/bin/newton/omp
      stencil: half/bin/3d
      bin: standard
Per MPI rank memory allocation (min/avg/max) = 17.59 | 17.59 | 17.59 Mbytes
   Step          Temp          PotEng         Press          Volume           Lx          Density    
         0   0              31438.924     -627.79627      5832000        180            0.011877106  
        35   0              13575.602     -33.150879      5832000        180            0.011877106  
Loop time of 0.389568 on 4 procs for 35 steps with 6064 atoms

24.1% CPU use with 1 MPI tasks x 4 OpenMP threads

Minimization stats:
  Stopping criterion = linesearch alpha is zero
  Energy initial, next-to-last, final = 
      31438.9238166657   13575.6023433086   13575.6023433086
  Force two-norm initial, final = 5546.2087 203.5943
  Force max component initial, final = 1107.7801 20.487523
  Final line search alpha, max atom move = 2.3429463e-13 4.8001166e-12
  Iterations, force evaluations = 35 118

MPI task timing breakdown:
Section |  min time  |  avg time  |  max time  |%varavg| %total
---------------------------------------------------------------
Pair    | 0.26391    | 0.26391    | 0.26391    |   0.0 | 67.74
Bond    | 0.10244    | 0.10244    | 0.10244    |   0.0 | 26.30
Neigh   | 0.006608   | 0.006608   | 0.006608   |   0.0 |  1.70
Comm    | 0.00053    | 0.00053    | 0.00053    |   0.0 |  0.14
Output  | 0          | 0          | 0          |   0.0 |  0.00
Modify  | 0.006622   | 0.006622   | 0.006622   |   0.0 |  1.70
Other   |            | 0.009461   |            |       |  2.43

Nlocal:           6064 ave        6064 max        6064 min
Histogram: 1 0 0 0 0 0 0 0 0 0
Nghost:            117 ave         117 max         117 min
Histogram: 1 0 0 0 0 0 0 0 0 0
Neighs:         245534 ave      245534 max      245534 min
Histogram: 1 0 0 0 0 0 0 0 0 0

Total # of neighbors = 245534
Ave neighs/atom = 40.490435
Ave special neighs/atom = 11.492084
Neighbor list builds = 2
Dangerous builds = 0

#Intial compression from 0 to 1000 atm
fix                     1 all npt temp 300.0 300.0 100.0 iso 0.0 1000.0 1000.0
WARNING: Detected non-ASCII characters in input. Will try to continue by replacing with ASCII equivalents where known. (src/input.cpp:462)
#restart                         50000 initialcompression.restart
run                     50000
Generated 78 of 78 mixed pair_coeff terms from geometric mixing rule
Last active /omp style is dihedral_style harmonic/omp
Per MPI rank memory allocation (min/avg/max) = 16.46 | 16.46 | 16.46 Mbytes
   Step          Temp          PotEng         Press          Volume           Lx          Density    
        35   0              13575.602     -33.150879      5832000        180            0.011877106  
       100   31.82801       12826.688     -10.22724       5804063.2      179.71212      0.011934274  
       200   55.010224      12756.847      11.735354      5742903.4      179.07866      0.01206137   
       300   77.219198      12699.823     -2.4159523      5722948.4      178.871        0.012103426  
       400   97.175792      12395.408      6.1160481      5683326.7      178.45725      0.012187806  
       500   112.8673       12984.721      18.851774      5636533.1      177.96613      0.012288987  
       600   139.43923      13240.744     -0.18375211     5611106.5      177.69812      0.012344674  
       700   171.26174      13468.051     -10.146844      5560864.3      177.16616      0.012456208  
       800   210.09004      13647.796      8.7413889      5462991.6      176.12061      0.012679368  
       900   254.20638      14143.833      10.954434      5392598.8      175.36087      0.012844879  
      1000   283.06788      14650.139     -19.985697      5332382.1      174.70571      0.012989932  
      1100   293.14627      15345.642      2.6905707      5225554.4      173.53116      0.013255489  
      1200   318.93507      15318.028     -19.651021      5150588.4      172.69733      0.013448421  
      1300   307.29993      15212.425      1.4979757      5073777.6      171.83454      0.013652013  
      1400   297.16611      15037.639      0.70623038     5004357.9      171.04726      0.013841392  
      1500   292.98402      15092.031     -9.3246434      4935355.7      170.25746      0.014034912  
      1600   288.91663      15176.007      14.275795      4853656.5      169.31276      0.014271154  
      1700   304.85227      15139.726      3.8073591      4768720.6      168.31932      0.014525338  
      1800   318.19122      14854.563     -8.1055455      4691073.1      167.40075      0.014765764  
      1900   303.47128      15111.931     -5.7703642      4609591        166.42586      0.015026774  
      2000   292.41957      14794.881      14.687923      4528485.9      165.44399      0.015295903  
      2100   300.82594      14536.98       19.352739      4458984.7      164.59324      0.015534317  
      2200   294.06178      14560.052     -23.404998      4388668.4      163.72346      0.015783211  
      2300   294.81967      14639.507      0.22011968     4304369.8      162.6684       0.016092316  
      2400   311.60569      14712.496     -6.4188126      4228140        161.70239      0.016382447  
      2500   310.15817      14714.659     -21.549139      4154824.3      160.7623       0.01667153   
      2600   308.74867      14742.066      5.4778162      4076374.5      159.74405      0.016992374  
      2700   293.06582      14592.575      6.7677051      4012322        158.90294      0.017263639  
      2800   290.07339      14439.31       7.4726517      3942709.3      157.9786       0.017568447  
      2900   298.11402      14356.143      10.516918      3874241.5      157.05878      0.017878927  
      3000   309.53764      14241.68      -26.753051      3802523.6      156.08361      0.018216134  
      3100   308.37495      14411.005     -1.1716052      3725898.8      155.02807      0.018590757  
      3200   308.26291      14280.366      7.9388093      3664089.8      154.16603      0.018904362  
      3300   298.34008      14079.907     -4.9772669      3596076.7      153.20619      0.019261903  
      3400   297.00287      14086.914      14.8851        3525448.8      152.19655      0.019647791  
      3500   291.06731      14457.971      16.904027      3459528.9      151.24197      0.020022172  
      3600   308.58905      14262.478     -9.9942786      3398527        150.34774      0.020381559  
      3700   304.60859      14561.32       13.366136      3335885.2      149.41827      0.020764287  
      3800   304.54757      14257.5       -21.839647      3275806.8      148.51583      0.021145105  
      3900   298.6368       13870.013     -9.5668239      3209506.6      147.50704      0.02158191   
      4000   291.91065      14075.258     -7.2696433      3149779.5      146.5863       0.021991152  
      4100   301.00114      14155.221      19.509238      3093741.4      145.71178      0.022389486  
      4200   303.01719      14087.478     -38.938747      3039346        144.85274      0.022790192  
      4300   301.78199      13989.227     -10.313607      2984359.3      143.97388      0.023210101  
      4400   301.76046      14009.761      20.935421      2926062.4      143.03024      0.023672523  
      4500   301.02854      13962.623     -5.3139268      2873156.9      142.16296      0.024108422  
      4600   293.06076      13935.817      10.539535      2822774.1      141.32708      0.024538726  
      4700   301.33385      13916.12      -5.6125913      2772891.1      140.48963      0.024980167  
      4800   306.07915      13562.002      37.364822      2722109.9      139.62672      0.025446174  
      4900   297.55635      14080.211      9.0792122      2676271.2      138.83854      0.02588201   
      5000   305.81984      13990.934     -5.1110751      2631469        138.05943      0.026322666  
      5100   296.28597      13945.182     -2.8789967      2584872.3      137.23968      0.026797177  
      5200   295.47639      13693.312     -13.958297      2534657.4      136.34517      0.027328064  
      5300   298.97903      13712.647      24.771671      2486319.5      135.47286      0.027859364  
      5400   298.18778      13644.181      11.14727       2445962.2      134.73587      0.028319032  
      5500   298.77013      13272.848      20.233698      2402762.2      133.93794      0.028828187  
      5600   300.12291      13291.344      2.2282405      2359391.4      133.12716      0.029358114  
      5700   298.04856      13436.091     -17.893332      2319113.5      132.36526      0.029867999  
      5800   296.36845      13418.579     -28.192755      2275247.7      131.52538      0.030443841  
      5900   303.78934      13321.847      17.941139      2235613.9      130.7572       0.030983562  
      6000   299.12517      13402.209     -38.426983      2198107.5      130.02184      0.031512235  
      6100   306.34356      13157.573      38.133332      2156072.7      129.18769      0.032126598  
      6200   301.76263      13217.453     -28.121899      2121925.2      128.50204      0.032643601  
      6300   292.68574      13390.027     -22.295315      2080939.2      127.6693       0.033286547  
      6400   298.28321      13298.135     -7.1513682      2044510.2      126.91991      0.033879645  
      6500   304.46125      13168.572     -26.939944      2010237        126.2067       0.034457271  
      6600   302.81108      13175.193      6.8985426      1973540.8      125.43403      0.035097972  
      6700   304.61262      13224.69      -23.725087      1937875.7      124.67383      0.035743923  
      6800   297.90705      13003.319      6.9251316      1906336.4      123.99377      0.036335286  
      6900   301.23972      13303.062      16.58632       1876011.1      123.33277      0.036922638  
      7000   292.75395      13045.905      1.3525481      1843240.4      122.61041      0.03757908   
      7100   301.03501      13038.72       5.4457774      1811788.8      121.90902      0.038231433  
      7200   303.8732       12884.473     -7.2272101      1780322.6      121.19915      0.038907151  
      7300   300.47469      13046.011     -53.480118      1749509.7      120.49586      0.039592395  
      7400   297.67681      13152.634      46.231585      1719403.2      119.80067      0.040285653  
      7500   301.17081      12859.441     -31.642194      1692211.8      119.16578      0.040932984  
      7600   301.59079      12504.633      35.800663      1661291.2      118.43551      0.041694846  
      7700   294.03914      12733.651      2.9127968      1636090.6      117.83359      0.042337068  
      7800   301.40432      12764.804     -2.0028058      1609911        117.20171      0.043025535  
      7900   298.52047      12771.296     -23.277383      1584253.8      116.57576      0.043722337  
      8000   304.9293       12535.12      -13.531229      1555623        115.86923      0.044527034  
      8100   300.87233      12525.019     -0.050311589    1530407        115.23975      0.045260692  
      8200   300.16857      12458.726      3.8878616      1504328.6      114.58143      0.046045311  
      8300   296.73523      12547.974      32.838886      1481771.4      114.00583      0.046746266  
      8400   300.66698      12073.82      -24.280244      1456619.5      113.3571       0.047553447  
      8500   300.81044      12666.742      42.354348      1432075.9      112.71681      0.048368443  
      8600   304.63872      12517.275      25.235715      1411862.5      112.18397      0.049060925  
      8700   303.75766      12340.359      16.548713      1388259.9      111.55531      0.049895038  
      8800   299.39613      12150.717     -20.768321      1366575        110.97142      0.050686777  
      8900   296.35164      12193.02       17.908594      1345189        110.3895       0.051492602  
      9000   298.20273      12044.076     -14.337963      1323249.2      109.78606      0.052346359  
      9100   303.32344      12221.2        41.852146      1301737.9      109.1879       0.053211389  
      9200   300.09602      12191.905     -57.171187      1282119.4      108.6366       0.054025607  
      9300   299.22748      12034.301      63.149199      1261453.1      108.04974      0.054910704  
      9400   301.27805      11975.776      24.392119      1243752.2      107.54196      0.055692189  
      9500   300.44377      11917.272     -57.446861      1224710        106.99031      0.056558106  
      9600   302.00051      12038.829     -11.56879       1206282.5      106.45098      0.057422107  
      9700   306.03157      11936.789     -21.080759      1187743.6      105.90283      0.058318377  
      9800   297.76791      11813.699     -39.793543      1167915.9      105.31022      0.059308447  
      9900   297.83044      11528.601      37.982275      1150993.7      104.79912      0.060180418  
     10000   298.72472      11727.569     -15.569597      1134701        104.30228      0.06104452   
     10100   305.86131      11882.375     -32.566155      1118463.6      103.80237      0.061930742  
     10200   297.86769      11810.133     -39.90491       1100637.9      103.24796      0.062933761  
     10300   299.74944      11921.943      76.320734      1084285        102.73407      0.063882911  
     10400   301.38831      11491.911      43.439024      1068272        102.22582      0.064840492  
     10500   304.57691      11684.542     -28.38053       1053177.1      101.74205      0.065769832  
     10600   302.33016      12142.266     -24.008251      1037976        101.25017      0.066733024  
     10700   301.27093      11754.057      17.306868      1022006.8      100.72825      0.06777575   
     10800   301.15047      11939.047     -19.823653      1005780.6      100.19232      0.068869174  
     10900   301.40261      11549.428      114.71995      991276.18      99.708356      0.069876874  
     11000   299.86069      11334.419      40.333009      977731.95      99.252153      0.070844857  
     11100   301.88866      11466.755      22.983207      962752.92      98.742689      0.0719471    
     11200   298.89306      11455.364      76.093664      948427.78      98.250497      0.073033795  
     11300   301.49055      11635.28       9.1934252      934992.04      97.784339      0.074083283  
     11400   298.8247       11686.359     -13.716962      920942.12      97.29207       0.0752135    
     11500   305.11451      11379.746      105.16828      908591.61      96.855192      0.076235879  
     11600   297.05028      11362.4        26.951722      896211.35      96.41327       0.077289001  
     11700   292.1645       11379.098     -39.35266       883036.25      95.938482      0.078442171  
     11800   297.61988      11812.089      12.390683      870131.18      95.468825      0.07960556   
     11900   304.75224      11436.251      23.957256      858069.69      95.025651      0.080724539  
     12000   308.07538      11208.831     -5.9303321      846317.93      94.589845      0.08184546   
     12100   306.15929      11090.129      67.078256      834949.08      94.164383      0.082959885  
     12200   299.05197      11120.849     -34.736305      823842.84      93.745002      0.084078269  
     12300   296.71496      11020.858     -38.658479      812335.89      93.306496      0.085269259  
     12400   291.63211      11097.474     -18.223374      800911.45      92.867018      0.086485566  
     12500   304.10954      10839.24      -58.700225      790788.33      92.474094      0.087592694  
     12600   302.32188      11200.681      29.825003      778969.25      92.011075      0.088921713  
     12700   301.04831      11517.446      23.067117      769289.63      91.62837       0.090040574  
     12800   307.62738      11016.946      44.94301       758499.46      91.197953      0.091321463  
     12900   293.08264      10754.541     -89.304972      748261.64      90.78578       0.092570935  
     13000   293.31994      10912.991     -2.9710668      736857.18      90.322186      0.094003671  
     13100   301.2816       10852.161     -51.293234      726739.33      89.906872      0.095312414  
     13200   301.65658      11108.634     -40.409217      717344.94      89.517789      0.096560631  
     13300   306.00915      11210.525      68.700016      707191.18      89.093416      0.097947036  
     13400   302.49567      10787.496     -59.987281      698142.03      88.711773      0.099216603  
     13500   295.00361      10541.398      1.5870505      688418.15      88.29798       0.10061803   
     13600   292.96497      10690.513     -31.727291      679043.52      87.895344      0.10200713   
     13700   297.44932      10755.397     -52.233321      670401.25      87.520866      0.10332212   
     13800   304.23208      10769.361     -39.213724      661287.62      87.12246       0.10474607   
     13900   305.0683       11070.89      -12.781253      652780.66      86.747259      0.10611111   
     14000   304.77103      10846.728      169.22569      644202.34      86.365594      0.10752411   
     14100   295.78655      10775.327      25.133152      636204.99      86.006714      0.10887573   
     14200   293.95745      10836.538     -25.425053      627874.13      85.629655      0.11032033   
     14300   296.51837      10863.709      34.280108      621181.58      85.324324      0.11150891   
     14400   300.52023      10294.359     -118.32381      613841.93      84.986938      0.11284221   
     14500   301.099        10629.316     -56.528694      604450.67      84.5513        0.11459542   
     14600   305.96265      10610.956      44.617862      596107         84.160455      0.11619941   
     14700   301.38263      10775.01       55.85796       588372.59      83.794879      0.1177269    
     14800   293.8686       10709.523      88.96099       581631.14      83.473614      0.11909142   
     14900   299.22731      10599.623     -137.82737      574838.07      83.147368      0.12049877   
     15000   299.14655      10467.817      97.57681       565581.29      82.698636      0.12247095   
     15100   302.6437       11049.702      25.234884      559172.45      82.385084      0.12387463   
     15200   301.19724      10819.057     -42.296718      552140.94      82.038299      0.12545217   
     15300   300.57542      11058.029     -55.858334      545123.86      81.689279      0.12706705   
     15400   298.66207      10715.87       16.737625      538197.65      81.341829      0.12870231   
     15500   298.84141      10747.086      33.608316      531271.53      80.991389      0.13038018   
     15600   299.55478      10475.159      80.598363      525515.5       80.697827      0.13180825   
     15700   300.16533      10463.871      104.93454      519576.37      80.392672      0.13331492   
     15800   301.57998      10525.451      54.453453      513708.06      80.088863      0.13483783   
     15900   300.89702      10586.547      24.604931      507875.68      79.784612      0.13638629   
     16000   303.75119      10085.558      97.442874      501518.58      79.450325      0.13811508   
     16100   298.18818      9978.5135      96.0744        495810.17      79.147732      0.13970524   
     16200   296.45914      10066.787     -123.96936      489293.67      78.799452      0.14156586   
     16300   300.77266      10270.111      50.505654      483250.66      78.473704      0.14333613   
     16400   301.21763      10469.474     -14.414105      478187.3       78.198666      0.14485387   
     16500   305.40452      10228.751      124.80383      472995.49      77.914628      0.14644385   
     16600   301.32434      10204.824     -196.82915      467213.79      77.59586       0.14825607   
     16700   295.24692      10697.897      153.26877      461527.31      77.279767      0.15008273   
     16800   297.20886      9867.1395     -54.102253      456015.02      76.970867      0.15189693   
     16900   295.43926      10385.103     -102.52412      450349.35      76.650769      0.15380788   
     17000   300.33406      10528.687      38.753241      445793.1       76.391396      0.15537988   
     17100   304.16109      10243.16      -126.76922      441039.98      76.118926      0.15705442   
     17200   296.56366      10198.205     -29.462191      435358.83      75.790677      0.15910388   
     17300   294.69415      10532.84       53.452427      430254.57      75.493315      0.16099139   
     17400   300.49519      10453.732     -20.71823       425452.05      75.211377      0.16280866   
     17500   300.9993       10618.848     -0.14340486     421235.46      74.962082      0.16443839   
     17600   302.49286      10435.167      256.60277      416502.51      74.680269      0.16630699   
     17700   299.01979      10419.475      264.71216      412405.97      74.434621      0.16795896   
     17800   297.58197      10120.927      125.97612      408562.77      74.202681      0.1695389    
     17900   301.87721      10134.72      -102.01944      404220.66      73.938875      0.17136007   
     18000   297.50915      10275.995     -15.306705      399617.81      73.657156      0.17333381   
     18100   307.36901      9652.1451      44.052647      394992.44      73.371871      0.17536356   
     18200   302.40419      9938.7778      48.443566      390149.39      73.070763      0.1775404    
     18300   296.07069      9687.9648      3.5765034      386025.32      72.812386      0.17943714   
     18400   301.11365      9782.4402     -76.886105      381081.16      72.500193      0.18176517   
     18500   302.0201       9910.679       121.17619      376527.16      72.210237      0.18396357   
     18600   305.36094      10225.982     -48.84573       372271.53      71.937158      0.18606655   
     18700   303.37759      10130.247      36.48762       368120.53      71.66878       0.18816468   
     18800   300.15453      10170.91      -14.649734      364394.26      71.426139      0.19008883   
     18900   299.77593      10066.237     -147.13324      360108.82      71.145033      0.19235097   
     19000   301.29857      10371.458      104.60336      356146.01      70.883098      0.19449124   
     19100   300.57604      10201.477      14.589376      352359.85      70.631019      0.19658108   
     19200   298.48138      10142.113      34.050442      348688.49      70.384852      0.1986509    
     19300   296.97536      10550.26       386.2877       345159.26      70.146581      0.20068208   
     19400   300.15046      10152.017     -46.96551       341968.8       69.92978       0.20255438   
     19500   302.7225       9991.0308     -113.57774      338758.13      69.71024       0.20447415   
     19600   301.2702       9938.8364      220.15788      335057.17      69.455446      0.20673272   
     19700   291.84008      10013.789      45.892412      331786.51      69.22871       0.20877063   
     19800   293.81175      10191.706     -103.48194      328462.71      68.996759      0.21088324   
     19900   302.21206      9898.7286      117.07457      325688.87      68.801985      0.2126793    
     20000   307.49873      9494.6782     -321.0047       322199.38      68.555384      0.21498266   
     20100   299.12494      9888.018       215.80879      318132.25      68.265703      0.21773109   
     20200   297.26524      9646.7633     -114.28112      314775.83      68.024777      0.22005272   
     20300   299.29003      9763.9549     -336.14871      311333.8       67.77592       0.22248558   
     20400   300.84542      9373.9213     -296.66819      307391.94      67.488663      0.22533863   
     20500   307.86492      9936.8017     -20.106027      303923.06      67.233835      0.22791058   
     20600   305.94411      9583.694      -208.67341      300924.82      67.012014      0.23018134   
     20700   304.16612      10028.42       27.51494       298196.18      66.808855      0.23228761   
     20800   296.34665      9532.4826      0.36351533     295353.39      66.595874      0.23452339   
     20900   302.47601      9656.7623      50.146392      292031.49      66.345259      0.23719113   
     21000   295.06049      9810.8805     -118.26962      289380.4       66.143886      0.2393641    
     21100   300.62588      9768.1632     -18.39575       286420.26      65.917578      0.24183792   
     21200   303.80421      10068.492     -5.3282951      283795.93      65.715637      0.24407426   
     21300   304.29136      10039.74       15.646911      281162.62      65.511749      0.2463602    
     21400   300.1656       9756.7645      119.23605      277970.86      65.262908      0.249189     
     21500   295.68942      9824.5228      144.34583      275015.1       65.030763      0.25186719   
     21600   298.21831      10132.189      68.869689      272081.05      64.798671      0.25458325   
     21700   297.99865      9798.2952     -150.28663      269531.75      64.595656      0.25699117   
     21800   302.28383      9487.4006     -122.42819      267026.21      64.394874      0.25940255   
     21900   300.89937      9540.5135      6.8684901      264446.17      64.186805      0.26193338   
     22000   300.87406      9456.3451     -90.470988      262216.27      64.005881      0.26416088   
     22100   299.86749      9366.9855     -312.00742      259158.31      63.756095      0.26727787   
     22200   300.40274      9742.2044     -190.28994      255866.28      63.484985      0.27071672   
     22300   301.46158      9749.5101     -102.67901      253235.88      63.266685      0.2735287    
     22400   301.62959      9876.3617      174.13618      250547.48      63.042005      0.27646368   
     22500   298.39553      9687.9126     -47.807441      248881.45      62.90196       0.27831435   
     22600   297.1668       9511.9711      223.44755      247028.7       62.745484      0.28040175   
     22700   299.78262      9568.4885      33.657499      245166.05      62.58738       0.28253211   
     22800   303.58653      9595.1446      180.35173      242586.74      62.36712       0.28553613   
     22900   304.06183      9731.4495     -135.15293      239985.7       62.143416      0.28863086   
     23000   299.56174      9648.5022      55.888049      237277.77      61.908795      0.29192486   
     23100   300.63357      9292.5821      359.38949      235290.92      61.735512      0.29438994   
     23200   301.33291      9639.9389     -200.54489      233372.43      61.567264      0.29681004   
     23300   292.0457       9767.2677     -250.62371      231189.78      61.374723      0.2996122    
     23400   304.33594      9634.6174     -241.45707      229079.4       61.187402      0.30237237   
     23500   303.18597      9354.698      -77.620373      227031.33      61.004508      0.3051001    
     23600   302.53635      9261.5366      14.295415      224990.52      60.821166      0.30786755   
     23700   299.5961       9236.4754     -64.046973      223230.64      60.662169      0.31029468   
     23800   300.14329      9205.0397     -80.028344      221142.86      60.472461      0.31322413   
     23900   299.75951      8960.4568      12.242288      219064.12      60.282384      0.31619637   
     24000   307.96073      9003.2229     -300.50254      216744.01      60.068811      0.31958105   
     24100   300.10526      8998.7953      185.51004      214564.85      59.86682       0.32282678   
     24200   300.52022      9286.7903     -183.61446      212771.99      59.699609      0.32554699   
     24300   297.15646      9429.8955      168.29558      210994.33      59.532885      0.32828978   
     24400   296.60974      9479.3472     -259.80619      209186.98      59.362414      0.33112615   
     24500   301.01239      9622.2795      271.21777      207075.9       59.162046      0.33450189   
     24600   306.09426      9658.7294     -522.53116      205210.52      58.983863      0.33754253   
     24700   302.07013      9351.6555     -159.18872      203383.19      58.808263      0.34057524   
     24800   301.11321      9254.1608      223.98181      201730.88      58.648575      0.34336478   
     24900   298.02363      9317.4992      233.2817       199996.06      58.479971      0.34634322   
     25000   296.16401      9403.3899     -308.25967      198192.3       58.303629      0.34949532   
     25100   300.41931      8969.2878     -92.411418      196162.31      58.103887      0.35311207   
     25200   299.20737      9370.3267      141.15195      194442.11      57.933546      0.356236     
     25300   304.51389      8984.2205     -85.851129      192569.82      57.746998      0.35969955   
     25400   304.56826      8482.0935      242.17171      190788.99      57.568437      0.36305701   
     25500   300.91748      9233.5289      238.85083      188937.27      57.381586      0.36661522   
     25600   297.63857      9060.8691      46.056368      187349.7       57.220415      0.36972185   
     25700   293.71285      8849.2074      165.70239      185692.31      57.051181      0.3730218    
     25800   303.03518      8800.0886     -64.074408      183880.77      56.865052      0.3766967    
     25900   305.10788      9101.3027      254.68263      182061.32      56.676875      0.38046126   
     26000   300.28367      9311.1723      83.926578      180402.76      56.504243      0.38395909   
     26100   300.58478      8829.0278     -229.60492      178855.81      56.342271      0.38728002   
     26200   300.68192      8613.9127      367.49709      177277.47      56.176047      0.39072806   
     26300   299.81732      8654.2114      19.560331      175924.44      56.032766      0.39373312   
     26400   303.08115      8849.7885     -713.8154       174372.75      55.867538      0.39723685   
     26500   302.73922      9013.5892      273.36784      172661.02      55.684129      0.40117498   
     26600   298.74113      8864.4673      101.55923      171213.74      55.528107      0.40456614   
     26700   297.80777      9147.0568      19.401349      169947.13      55.39084       0.40758134   
     26800   296.40149      9019.4887     -346.78031      168462.56      55.229079      0.41117313   
     26900   299.52932      9295.287       155.61047      166930.63      55.061159      0.41494649   
     27000   302.64281      8882.8191     -119.03262      165731.65      54.929016      0.41794841   
     27100   302.5213       9105.4418     -327.64606      164421.06      54.783841      0.42127986   
     27200   302.13817      9189.1666     -303.73682      162907.07      54.615172      0.42519506   
     27300   295.821        9316.7681     -150.69152      161547.63      54.462829      0.42877311   
     27400   295.87271      8982.3999     -93.0372        160075.37      54.296876      0.43271666   
     27500   296.8224       8728.9899     -358.74071      158667.91      54.137272      0.43655507   
     27600   302.1489       8735.6771     -80.565344      157163.49      53.965626      0.44073391   
     27700   303.13877      8609.5377     -84.488659      155635.31      53.790144      0.44506148   
     27800   303.83723      8871.6668     -435.461        154458.71      53.65425       0.44845177   
     27900   298.04336      8523.93       -380.62974      153066         53.492502      0.45253212   
     28000   294.76906      8583.7267     -166.44606      151710.72      53.334155      0.45657473   
     28100   301.2051       9108.2751      111.67307      150612.12      53.205105      0.4599051    
     28200   302.21847      9023.1516      284.73679      149548.43      53.079556      0.46317625   
     28300   303.20891      8839.2218      328.3598       148362.1       52.938828      0.46687988   
     28400   301.56023      8824.0262      370.83895      147187.05      52.798697      0.47060715   
     28500   296.93513      9002.9678      708.80258      145851.89      52.638563      0.4749152    
     28600   299.80329      9186.0795      945.37905      144876.85      52.521001      0.47811145   
     28700   299.89125      8564.0923      211.55241      144032.95      52.418826      0.48091272   
     28800   301.67341      8514.1168      115.63184      143053.88      52.299783      0.48420413   
     28900   305.00765      9048.7687      271.23133      142078.05      52.180591      0.48752979   
     29000   300.80994      9111.357      -173.37028      141109.09      52.061699      0.49087751   
     29100   298.69308      8689.6883      567.3208       139974.76      51.921821      0.49485549   
     29200   297.59589      8552.4603     -191.99686      138970.85      51.797393      0.49843029   
     29300   299.14112      8485.5797     -70.56119       137940.04      51.669007      0.50215501   
     29400   303.0173       8562.0775      857.42484      136852.95      51.532916      0.50614386   
     29500   302.35461      8258.5683      180.2645       136084.27      51.436251      0.50900286   
     29600   302.68874      8924.4629      370.42801      135201.14      51.324744      0.51232762   
     29700   300.59209      8597.8302      413.47522      134311.73      51.211951      0.51572024   
     29800   297.42087      8912.4701      34.797645      133321.95      51.085842      0.51954894   
     29900   300.05122      8646.9674     -177.6178       132336.19      50.959623      0.52341903   
     30000   304.64008      8847.2559      530.85177      131182.38      50.81109       0.52802272   
     30100   306.59377      8602.9026      1064.1673      130101.57      50.67116       0.53240926   
     30200   301.82129      8571.7006      177.69792      129297.68      50.56658       0.53571942   
     30300   298.3561       8601.6308     -409.14247      128321.79      50.439039      0.53979358   
     30400   299.16604      8588.68        243.28273      127353.09      50.311797      0.54389947   
     30500   296.41507      8755.7344     -84.020581      126532.4       50.20349       0.54742723   
     30600   297.11634      8505.0856      522.60257      125381.46      50.05081       0.55245234   
     30700   298.60481      8768.1951     -470.24336      124542.65      49.938945      0.55617317   
     30800   305.9832       8399.9534      1014.1502      123639.03      49.817875      0.56023798   
     30900   300.93296      8309.3377     -377.42192      122924.27      49.72169       0.56349554   
     31000   296.60507      8272.0685      228.10689      122088.65      49.608766      0.56735234   
     31100   294.31738      8304.9149      527.14577      121492.88      49.527941      0.57013448   
     31200   299.88316      8877.013       602.46909      120734.23      49.424636      0.57371699   
     31300   301.18286      8332.9951      83.673458      120240.21      49.357131      0.57607418   
     31400   296.89211      8276.5679      219.31945      119708.29      49.284241      0.57863394   
     31500   301.27682      8407.2473      737.60386      118760.31      49.153801      0.58325277   
     31600   301.27806      8328.8005      295.30067      118101.93      49.062801      0.5865042    
     31700   303.78298      8292.4334      58.128689      117307.51      48.952544      0.5904761    
     31800   302.18985      8454.832       184.58845      116545.83      48.846364      0.59433515   
     31900   298.24708      8835.0642     -160.27974      115753.67      48.735443      0.59840248   
     32000   297.30965      8764.5308      819.47417      115060.5       48.637967      0.60200747   
     32100   303.54964      9000.9319     -71.631004      114498.72      48.55868       0.60496118   
     32200   302.7518       8568.8604     -373.22847      113817.34      48.462165      0.60858282   
     32300   304.35708      8724.813       54.823694      112937.07      48.336906      0.61332632   
     32400   305.23882      8312.7776     -296.20661      112096.95      48.21675       0.61792295   
     32500   296.38563      8554.3651     -1.1681933      111217.45      48.090318      0.62280946   
     32600   295.23655      8681.8441     -234.75409      110484.56      47.984451      0.62694081   
     32700   303.18116      8138.3438      284.38218      109716.71      47.873032      0.63132842   
     32800   300.7656       8575.7288     -214.79744      108868.95      47.74941       0.63624458   
     32900   308.59983      8151.6321     -220.91743      108070.37      47.632372      0.64094609   
     33000   298.39536      8386.9012     -177.09159      107610.25      47.564676      0.64368667   
     33100   293.8977       7974.193      -568.53265      107164.88      47.498966      0.64636176   
     33200   302.11684      8322.6525      599.61966      106166.58      47.351013      0.65243958   
     33300   301.53599      7809.1117     -545.20555      105589.29      47.265032      0.65600668   
     33400   302.15367      8334.059      -49.629716      105072.04      47.187727      0.65923608   
     33500   301.21542      8272.056       746.45935      104381.79      47.084169      0.66359545   
     33600   301.14951      8710.95        224.53723      103801.34      46.996732      0.6673062    
     33700   300.58049      8699.7188      608.85634      103217.11      46.908394      0.67108333   
     33800   298.17211      7912.5051      104.50812      102459.65      46.793367      0.67604446   
     33900   296.54693      8549.3326      794.06006      101801.29      46.692926      0.68041655   
     34000   303.74032      8414.0175     -398.74225      101348.44      46.623588      0.6834568    
     34100   306.74899      8593.374       909.75585      100786.16      46.537205      0.68726977   
     34200   302.64756      8117.5578     -137.43958      100407.16      46.478799      0.68986395   
     34300   298.84001      8350.3343     -17.051447      99929.989      46.405054      0.69315809   
     34400   300.3893       8801.5921     -519.58015      99530.863      46.34319       0.6959377    
     34500   298.10728      8742.113      -215.04854      98999.514      46.260574      0.69967293   
     34600   301.98992      8905.2535      356.02938      98421.042      46.170295      0.70378528   
     34700   304.67013      8663.8737      17.909925      97759.422      46.066605      0.70854838   
     34800   303.61942      8650.9072      825.12569      97197.438      45.978162      0.71264513   
     34900   302.16489      8609.5319      524.80406      96702.908      45.900052      0.71628953   
     35000   299.75125      8338.5264      156.99706      96088.178      45.802585      0.72087203   
     35100   300.81724      8173.4637      575.85898      95393.787      45.691985      0.72611941   
     35200   302.80318      8211.8058      504.97299      94980.853      45.625961      0.72927625   
     35300   307.07042      9176.4962      1243.0936      94601.014      45.565058      0.73220441   
     35400   301.50607      9033.4989      1026.7931      94199.02       45.500426      0.73532909   
     35500   303.00742      8942.4334      536.40493      93846.977      45.443673      0.73808749   
     35600   300.87806      8805.8901      650.53534      93436.446      45.377312      0.74133042   
     35700   297.87901      8906.3333      44.532842      92883.194      45.287573      0.7457461    
     35800   300.87006      8459.507       189.75711      92274.498      45.188428      0.75066547   
     35900   299.76544      8043.3162     -565.4651       91967.296      45.138225      0.75317296   
     36000   301.93229      8374.3705      168.76651      91447.869      45.053084      0.75745101   
     36100   303.02235      7960.0341      581.77288      91186.356      45.010097      0.7596233    
     36200   297.56287      8349.3986      689.17074      90920.533      44.966318      0.76184419   
     36300   299.03691      8355.8824      282.75594      90582.536      44.910528      0.76468691   
     36400   298.20778      8471.086       1086.9047      90135.582      44.83654       0.76847876   
     36500   300.51841      8193.0994      413.44762      89807.491      44.782072      0.77128622   
     36600   304.1768       8390.6603      610.87301      89485.326      44.72846       0.774063     
     36700   296.18341      8653.2302      981.71709      89120.695      44.667624      0.77723003   
     36800   294.57307      8659.4402     -34.384211      88672.956      44.592696      0.78115452   
     36900   299.0857       8271.0755      1284.0689      87934.475      44.468559      0.78771472   
     37000   298.46732      8584.9808     -200.99299      87459.776      44.388396      0.79199014   
     37100   311.74375      8322.6841      175.21207      87218.663      44.347568      0.79417956   
     37200   300.73015      8933.8404     -246.3612       86899.423      44.293395      0.79709712   
     37300   297.02316      8543.9237      1001.1206      86699.979      44.259482      0.79893076   
     37400   300.76841      8593.8547     -424.23598      86462.814      44.219089      0.80112221   
     37500   300.00001      7767.6893      934.11643      85919.219      44.126225      0.80619076   
     37600   299.98686      8064.1009      1013.7551      85628.997      44.076485      0.80892317   
     37700   301.32452      8505.0706      670.00076      85335.67       44.026098      0.81170371   
     37800   307.80452      8980.2954      956.20957      84999.189      43.968157      0.81491696   
     37900   297.37742      8483.124       535.3376       84695.777      43.915778      0.81783629   
     38000   299.26154      8869.9569      548.7844       84461.811      43.875303      0.82010177   
     38100   303.08326      8500.3483     -103.0117       84034.291      43.80115       0.82427399   
     38200   302.26325      8646.0163      404.58287      83685.214      43.740416      0.82771229   
     38300   297.48122      8308.4805     -721.74732      83452.25       43.69979       0.83002292   
     38400   300.92077      8139.6197     -206.43996      83138.488      43.644954      0.8331554    
     38500   304.02215      8532.6326     -384.18595      82931.912      43.608776      0.83523071   
     38600   302.57918      8829.5673      712.57767      82766.162      43.579704      0.83690337   
     38700   306.8103       8443.8835      905.61106      82696.034      43.567392      0.83761308   
     38800   298.32365      8633.0443     -198.43259      82520.24       43.536498      0.83939746   
     38900   302.53808      8132.7591      1839.4076      82260.949      43.490851      0.84204329   
     39000   299.52349      7752.7961      581.44605      82128.362      43.467472      0.84340268   
     39100   297.41257      8208.9215     -187.33825      81852.499      43.41875       0.84624515   
     39200   302.65854      8279.9455      1888.634       81453.873      43.348151      0.85038658   
     39300   300.68605      8935.2105      579.07363      81212.381      43.30527       0.85291528   
     39400   301.09822      8263.201       973.02716      81001.768      43.267802      0.85513294   
     39500   296.51733      8359.7118      524.14407      80842.175      43.239367      0.85682109   
     39600   295.57451      8654.6888      1591.3389      80723.359      43.218174      0.85808223   
     39700   298.38676      8351.4553      142.07023      80625.527      43.200707      0.85912344   
     39800   299.89969      8050.7313      491.2648       80391.721      43.158907      0.86162206   
     39900   298.4023       8533.3581      357.52893      80171.559      43.119473      0.86398819   
     40000   296.48353      8231.7005      632.98171      80016.658      43.091684      0.86566075   
     40100   298.02114      8243.5267     -396.09457      79922.661      43.074804      0.86667886   
     40200   300.6494       7999.8785      942.80943      79737.468      43.041508      0.86869174   
     40300   303.09349      8169.0605      418.06897      79485.276      42.996083      0.87144794   
     40400   301.09043      7897.664       1718.1536      79209.821      42.946358      0.87447843   
     40500   299.03587      8013.4162      328.80251      79047.381      42.916981      0.87627546   
     40600   292.83937      7871.7498     -1074.5171      78747.721      42.862681      0.87960996   
     40700   294.67514      8205.2639      807.27259      78351.217      42.79062       0.88406132   
     40800   298.55913      8239.882       108.35992      78168.634      42.757356      0.88612627   
     40900   298.29693      8617.982       489.78351      77802.789      42.690547      0.89029302   
     41000   298.63134      8475.7701      572.35603      77641.577      42.661041      0.89214159   
     41100   298.93147      8405.7991     -346.32974      77455.395      42.626914      0.89428606   
     41200   300.5393       8326.8817      1126.8063      77183.223      42.576926      0.89743959   
     41300   301.22243      8471.487       850.33391      77236.798      42.586775      0.89681709   
     41400   299.49377      7863.3377      578.6373       77365.98       42.610505      0.89531962   
     41500   298.04466      8354.7318      1152.5636      77226.486      42.58488       0.89693684   
     41600   296.53006      7829.5664      0.73104744     77095.07       42.56071       0.89846575   
     41700   296.02002      8474.1284      1843.7167      76840.886      42.513884      0.90143781   
     41800   301.70174      7464.4111      321.38414      76687.723      42.485619      0.90323819   
     41900   301.84092      7970.078       1189.8553      76455.173      42.44263       0.90598553   
     42000   303.7163       7665.0683      940.99205      76391.46       42.430837      0.90674115   
     42100   299.34784      7657.4728      231.99503      76209.551      42.397131      0.9089055    
     42200   294.42063      8086.5758      1233.8573      75934.196      42.346007      0.9122014    
     42300   299.23031      8161.5142      1043.2283      75779.195      42.317175      0.91406725   
     42400   306.08033      7428.1519      570.21372      75623.316      42.288139      0.91595137   
     42500   302.04581      7882.2982     -396.55116      75439.117      42.253777      0.91818784   
     42600   301.68314      7996.7411      1286.1877      75109.66       42.192177      0.92221533   
     42700   302.95074      8062.4677      1072.5689      74932.704      42.159016      0.92439317   
     42800   299.05689      8676.0675      276.76992      74945.164      42.161353      0.92423949   
     42900   293.51606      8487.4459      1853.8435      74838.314      42.141307      0.92555907   
     43000   297.12981      7790.7757     -838.18083      74768.609      42.128219      0.92642194   
     43100   298.90348      8315.9232      505.25459      74427.118      42.063984      0.93067261   
     43200   304.67834      7900.6922      1546.9077      74233.943      42.02756       0.93309445   
     43300   299.12534      8322.6248      807.86922      74201.843      42.021501      0.93349811   
     43400   297.84327      8338.3003      482.33337      74103.453      42.00292       0.93473755   
     43500   301.04378      8219.4839      916.08619      74043.063      41.991507      0.93549992   
     43600   296.12623      8111.0131      1844.147       73859.252      41.95673       0.93782807   
     43700   302.45943      8095.9374      618.82999      73744.407      41.934972      0.9392886    
     43800   305.19856      8117.8501      579.36712      73573.811      41.902611      0.94146652   
     43900   299.18811      7850.2575      1629.1263      73466.959      41.882316      0.94283581   
     44000   300.28912      7947.8048      789.79427      73495.394      41.887719      0.94247103   
     44100   296.59054      8000.4268      667.22518      73531.089      41.894499      0.94201353   
     44200   301.49965      7756.3967      675.49598      73457.272      41.880475      0.94296015   
     44300   303.42206      8514.1468      1347.4068      73367.139      41.863339      0.9441186    
     44400   303.47618      8046.0125      643.86084      73335.248      41.857272      0.94452916   
     44500   301.59935      8191.6357      154.17589      73337.636      41.857727      0.9444984    
     44600   304.48295      8052.3983      1721.4881      73370.636      41.864004      0.9440736    
     44700   302.00231      7610.3934      243.25129      73392.274      41.868119      0.94379526   
     44800   301.65656      7706.5571      1327.101       73135.467      41.819228      0.94710929   
     44900   300.34925      7978.935       1036.0773      72837.028      41.762268      0.95098993   
     45000   298.87421      8356.0148      1861.697       72466.276      41.691288      0.95585539   
     45100   301.61308      8012.3055      33.730173      72304.031      41.660151      0.95800025   
     45200   305.74966      8051.1762      1895.7587      72338.075      41.666688      0.95754939   
     45300   299.19845      7791.8465      935.27295      72198.429      41.639859      0.95940149   
     45400   297.11816      7750.3921     -52.14607       72011.958      41.603979      0.96188581   
     45500   297.92484      7961.9953      2356.7144      72003.018      41.602258      0.96200524   
     45600   299.17178      8438.5908      609.28882      72055.585      41.612379      0.96130342   
     45700   298.65528      8213.1898     -149.40037      72012.692      41.604121      0.961876     
     45800   300.44136      8536.5328      2705.4455      71929.099      41.588016      0.96299385   
     45900   300.31964      8072.0563      1737.2511      71926.064      41.587431      0.96303449   
     46000   298.96433      8056.0008      893.29099      71758.68       41.555146      0.96528085   
     46100   301.09296      8021.1304      1773.2427      71644.919      41.533175      0.96681357   
     46200   301.40544      7954.1123      508.14454      71656.12       41.535339      0.96666244   
     46300   300.47402      8245.7305      1391.0525      71678.84       41.539729      0.96635604   
     46400   298.57918      8315.2906      329.37044      71758.978      41.555204      0.96527685   
     46500   300.29727      7896.4298      1472.7119      71687.507      41.541403      0.96623922   
     46600   301.30751      7993.6507      1065.7213      71606.819      41.525811      0.96732798   
     46700   300.82746      7539.0731      885.84129      71533.606      41.511654      0.96831802   
     46800   299.68812      8129.5582      1156.9546      71297.123      41.465859      0.97152981   
     46900   301.31752      7979.8704      885.49168      71228.85       41.452619      0.97246101   
     47000   300.56431      7809.064       1158.5802      71154.675      41.438225      0.97347477   
     47100   296.84408      7544.9371     -703.07149      71179.255      41.442996      0.9731386    
     47200   294.01454      7952.2673      2391.0445      71042.245      41.416389      0.97501536   
     47300   292.58606      8124.476       1009.8273      71072.933      41.422351      0.97459437   
     47400   300.40757      7928.4377      1246.6448      70970.59       41.402459      0.97599978   
     47500   302.6624       7385.5667      1803.089       70829.487      41.375002      0.97794411   
     47600   299.54128      8322.0435      1519.2643      70737.518      41.357087      0.97921559   
     47700   305.40625      7895.4256      587.74416      70740.783      41.357723      0.97917039   
     47800   301.62595      8379.0434      1220.8899      70668.595      41.34365       0.98017062   
     47900   294.78206      8101.4318      2241.9892      70608.15       41.33186       0.9810097    
     48000   298.77076      8156.8876      1989.4455      70642.267      41.338516      0.98053591   
     48100   300.93961      7989.4134      239.53159      70727.105      41.355057      0.97935976   
     48200   300.34302      7733.4209      822.42862      70843.907      41.37781       0.97774506   
     48300   300.7027       8261.6698      615.81932      70760.844      41.361632      0.97889279   
     48400   298.93149      8031.2925      881.03891      70615.959      41.333383      0.98090121   
     48500   299.61957      7590.6787      1096.2489      70512.784      41.313243      0.98233649   
     48600   298.78629      7534.2899      1061.0608      70422.958      41.295693      0.98358947   
     48700   300.70906      8239.4423      1582.5018      70482.224      41.307274      0.98276241   
     48800   300.29003      7585.4315      1345.661       70693.076      41.348424      0.97983118   
     48900   301.96405      8215.4963      1288.9854      70803.103      41.369864      0.97830854   
     49000   301.88682      8196.7382      72.663412      70985.489      41.405356      0.97579493   
     49100   298.57609      8214.896       858.36808      70960.399      41.400477      0.97613995   
     49200   298.79837      8016.1568      1543.5784      70846.75       41.378364      0.97770582   
     49300   298.10998      7937.9517      939.58264      70679.426      41.345762      0.98002041   
     49400   300.48509      7645.0326      1180.1556      70529.718      41.31655       0.98210063   
     49500   296.19847      7970.0918      925.84517      70508.626      41.312431      0.98239441   
     49600   300.34897      7844.9826      1466.8907      70347.725      41.280982      0.98464136   
     49700   302.71289      7523.6987      860.3154       70481.85       41.307201      0.98276762   
     49800   301.29411      7710.6674      1129.4516      70494.458      41.309664      0.98259185   
     49900   298.72569      7521.9538      384.74575      70250.343      41.261925      0.98600629   
     50000   291.93458      8033.5609      1004.4439      70098.096      41.232096      0.98814781   
     50035   296.90646      8211.6866      730.7053       70051.489      41.222955      0.98880524   
Loop time of 531.223 on 4 procs for 50000 steps with 6064 atoms

Performance: 8.132 ns/day, 2.951 hours/ns, 94.122 timesteps/s
49.2% CPU use with 1 MPI tasks x 4 OpenMP threads

MPI task timing breakdown:
Section |  min time  |  avg time  |  max time  |%varavg| %total
---------------------------------------------------------------
Pair    | 350        | 350        | 350        |   0.0 | 65.89
Bond    | 75.667     | 75.667     | 75.667     |   0.0 | 14.24
Neigh   | 54.954     | 54.954     | 54.954     |   0.0 | 10.34
Comm    | 3.9881     | 3.9881     | 3.9881     |   0.0 |  0.75
Output  | 0.16344    | 0.16344    | 0.16344    |   0.0 |  0.03
Modify  | 45.432     | 45.432     | 45.432     |   0.0 |  8.55
Other   |            | 1.016      |            |       |  0.19

Nlocal:           6064 ave        6064 max        6064 min
Histogram: 1 0 0 0 0 0 0 0 0 0
Nghost:          16954 ave       16954 max       16954 min
Histogram: 1 0 0 0 0 0 0 0 0 0
Neighs:    1.97613e+06 ave 1.97613e+06 max 1.97613e+06 min
Histogram: 1 0 0 0 0 0 0 0 0 0

Total # of neighbors = 1976131
Ave neighs/atom = 325.87912
Ave special neighs/atom = 11.492084
Neighbor list builds = 3237
Dangerous builds = 358
unfix             1

#second minimization
minimize                 1.0e-5 1.0e-5 10000 10000
Switching to 'neigh_modify every 1 delay 0 check yes' setting during minimization
Generated 78 of 78 mixed pair_coeff terms from geometric mixing rule
Last active /omp style is dihedral_style harmonic/omp
Per MPI rank memory allocation (min/avg/max) = 40.06 | 40.06 | 40.06 Mbytes
   Step          Temp          PotEng         Press          Volume           Lx          Density    
     50035   296.90646      8211.6866      730.7053       70051.489      41.222955      0.98880524   
     50044   296.90646      3525.0548      2967.6068      70051.489      41.222955      0.98880524   
Loop time of 1.8333 on 4 procs for 9 steps with 6064 atoms

109.9% CPU use with 1 MPI tasks x 4 OpenMP threads

Minimization stats:
  Stopping criterion = linesearch alpha is zero
  Energy initial, next-to-last, final = 
      8211.68659653724   3525.05475232663   3525.05475232663
  Force two-norm initial, final = 2596.2337 352.35631
  Force max component initial, final = 119.83576 45.424748
  Final line search alpha, max atom move = 8.8489273e-14 4.0196029e-12
  Iterations, force evaluations = 9 87

MPI task timing breakdown:
Section |  min time  |  avg time  |  max time  |%varavg| %total
---------------------------------------------------------------
Pair    | 1.6773     | 1.6773     | 1.6773     |   0.0 | 91.49
Bond    | 0.12966    | 0.12966    | 0.12966    |   0.0 |  7.07
Neigh   | 0          | 0          | 0          |   0.0 |  0.00
Comm    | 0.010488   | 0.010488   | 0.010488   |   0.0 |  0.57
Output  | 0          | 0          | 0          |   0.0 |  0.00
Modify  | 0.008805   | 0.008805   | 0.008805   |   0.0 |  0.48
Other   |            | 0.007054   |            |       |  0.38

Nlocal:           6064 ave        6064 max        6064 min
Histogram: 1 0 0 0 0 0 0 0 0 0
Nghost:          16993 ave       16993 max       16993 min
Histogram: 1 0 0 0 0 0 0 0 0 0
Neighs:     1.9761e+06 ave  1.9761e+06 max  1.9761e+06 min
Histogram: 1 0 0 0 0 0 0 0 0 0

Total # of neighbors = 1976097
Ave neighs/atom = 325.87352
Ave special neighs/atom = 11.492084
Neighbor list builds = 0
Dangerous builds = 0


#Compression from 0 to 4000 atm
fix                              1 all npt temp 300.0 300.0 100.0 iso 0.0 4000.0 1000.0
run                              250000
Generated 78 of 78 mixed pair_coeff terms from geometric mixing rule
Last active /omp style is dihedral_style harmonic/omp
Per MPI rank memory allocation (min/avg/max) = 37.81 | 37.81 | 37.81 Mbytes
   Step          Temp          PotEng         Press          Volume           Lx          Density    
     50044   296.90646      3525.0548      2967.6068      70051.489      41.222955      0.98880524   
     50100   188.67221      5999.0222      1113.3482      70111.758      41.234774      0.98795526   
     50200   194.79797      5845.4354      435.10591      70498.344      41.310423      0.98253769   
     50300   213.25997      5681.69        768.04936      71003.453      41.408849      0.97554806   
     50400   235.16849      6790.4237      1168.0304      71370.366      41.480054      0.97053278   
     50500   259.69312      6716.3204      77.650615      71813.456      41.565717      0.96454458   
     50600   276.49886      7208.2449     -231.8496       72294.041      41.658232      0.95813264   
     50700   289.70588      7217.3716     -570.24775      72773.444      41.750112      0.95182083   
     50800   305.47537      7569.371       1033.6482      73226.095      41.836495      0.94593711   
     50900   309.06016      8067.0952     -165.30012      73498.485      41.888306      0.9424314    
     51000   309.24555      7500.876      -941.16365      73731.246      41.932478      0.93945626   
     51100   296.05961      8201.3089      980.49174      73909.921      41.966322      0.93718515   
     51200   294.57558      7836.3271     -538.06117      73939.989      41.972012      0.93680404   
     51300   290.3888       7919.8686     -304.91562      73795.326      41.944622      0.93864048   
     51400   296.83401      7231.7717      66.915856      73720.223      41.930388      0.93959672   
     51500   302.20613      7407.6155     -1007.6685      73706.294      41.927747      0.9397743    
     51600   305.87628      7829.2955     -875.64489      73747.071      41.935477      0.93925466   
     51700   303.11979      7753.5968      769.89553      73577.564      41.903323      0.94141851   
     51800   299.14161      7586.841      -295.24706      73501.02       41.888787      0.9423989    
     51900   296.16622      7948.5682     -150.73694      73570.511      41.901984      0.94150876   
     52000   297.10067      7778.1493      743.3577       73672.757      41.921387      0.94020209   
     52100   297.93474      8094.298      -400.63402      73947.376      41.97341       0.93671045   
     52200   302.13139      7912.6418     -156.89022      74186.817      42.018665      0.93368718   
     52300   303.10973      7368.6054     -68.74273       74347.678      42.049013      0.93166702   
     52400   301.58813      7610.974       63.377824      74574.11       42.091657      0.92883817   
     52500   298.16542      7701.1792     -414.7637       74789.784      42.132196      0.92615966   
     52600   298.61873      7281.3386     -111.54117      74861.035      42.145571      0.92527815   
     52700   299.40316      7470.9068     -791.11255      74976.286      42.167188      0.92385585   
     52800   300.70968      7688.9946      438.68194      74807.963      42.135609      0.92593459   
     52900   297.58109      7850.5322      417.54225      74830.387      42.139819      0.92565712   
     53000   298.28306      8114.6258     -24.097862      74986.885      42.169175      0.92372526   
     53100   300.78825      7682.8043      22.957942      75027.383      42.176765      0.92322667   
     53200   298.57678      7522.1511      26.771465      74935.985      42.159632      0.9243527    
     53300   301.5465       7635.1444     -511.30428      74729.252      42.120826      0.92690985   
     53400   302.00562      7717.7951     -496.52276      74445.202      42.06739       0.93044654   
     53500   297.63565      7698.0319     -603.76346      74366.397      42.052541      0.93143251   
     53600   304.91786      7704.5001     -290.69078      74267.151      42.033826      0.93267722   
     53700   298.8862       7998.7872     -304.43479      74136.061      42.00908       0.93432641   
     53800   301.53269      7574.224      -186.36774      73865.581      41.957929      0.93774772   
     53900   303.27785      8047.8445      1296.9732      73668.122      41.920508      0.94026125   
     54000   301.55326      8034.925       608.36516      73629.445      41.91317       0.94075516   
     54100   300.67778      7943.3779      718.51787      73702.67       41.92706       0.9398205    
     54200   301.16508      7547.2687      996.95833      73945.964      41.973143      0.93672834   
     54300   299.73051      7774.372      -60.726272      74243.964      42.029451      0.93296851   
     54400   298.4336       7980.5001     -286.16008      74217.822      42.024517      0.93329713   
     54500   303.53579      7666.9867      1043.1305      74156.308      42.012904      0.93407131   
     54600   299.08664      8266.2542     -194.45872      74344.83       42.048476      0.93170272   
     54700   296.7617       7955.1048     -255.79184      74444.565      42.06727       0.93045449   
     54800   296.05015      7714.1514     -996.52338      74439.53       42.066322      0.93051743   
     54900   302.10088      7881.9211      420.55702      74311.333      42.04216       0.93212269   
     55000   301.38246      7939.2917     -196.43411      74256.246      42.031768      0.9328142    
     55100   306.04311      7970.1968      520.9715       74252.688      42.031097      0.93285889   
     55200   299.90113      7753.323       417.56504      74255.941      42.031711      0.93281803   
     55300   300.27111      7586.5402     -60.488626      74033.615      41.989721      0.93561932   
     55400   296.98294      7995.2807      1410.1725      73609.982      41.909477      0.9410039    
     55500   305.19691      7781.7943      83.952257      73312.805      41.853002      0.9448183    
     55600   302.27864      7843.1646      684.8892       73129.111      41.818017      0.9471916    
     55700   301.50067      7943.0904      582.75785      72989.755      41.791437      0.94900003   
     55800   300.98055      8291.3033     -249.90957      72825.625      41.760088      0.95113884   
     55900   299.28741      8131.2703      434.11481      72745.221      41.744714      0.95219011   
     56000   293.51942      7866.4022     -306.32284      72727.461      41.741317      0.95242263   
     56100   300.57182      7792.2923      181.85991      72603.44       41.717576      0.95404956   
     56200   297.55553      7704.4114      217.54375      72613.586      41.719519      0.95391626   
     56300   301.73276      7823.6366     -22.061875      72701.011      41.736256      0.95276915   
     56400   304.28648      7823.6015      1260.6099      72677.501      41.731756      0.95307735   
     56500   299.18339      8225.1087     -303.4372       72746.556      41.744969      0.95217264   
     56600   295.31877      7889.0713      459.23478      72753.816      41.746358      0.95207762   
     56700   303.46451      7635.2923      250.09181      72709.436      41.737868      0.95265875   
     56800   300.20549      7387.7508      168.45191      72611.393      41.719099      0.95394507   
     56900   303.22165      7880.0923      848.28879      72550.607      41.707454      0.95474433   
     57000   303.037        8040.3821     -424.69172      72457.256      41.689558      0.95597438   
     57100   303.4051       8005.754       1170.9158      72400.861      41.67874       0.95671902   
     57200   295.82013      7911.6608      880.35451      72388.637      41.676394      0.95688057   
     57300   301.47033      7684.6574     -168.96951      72451.797      41.688511      0.9560464    
     57400   295.91282      7446.917       1280.6384      72343.43       41.667716      0.95747852   
     57500   300.54311      7786.0044      441.44475      72350.008      41.668979      0.95739146   
     57600   302.34142      8412.9269      1678.5547      72439.982      41.686245      0.95620234   
     57700   297.85361      8330.2218      341.94198      72499.893      41.697734      0.95541217   
     57800   297.3778       8213.3256     -119.84564      72666.877      41.729723      0.95321669   
     57900   298.45202      8068.8554      646.33282      72618.755      41.720509      0.95384836   
     58000   304.89918      8148.1853      138.09648      72595.298      41.716017      0.95415656   
     58100   303.62422      8300.8327      142.52423      72729.669      41.741739      0.95239373   
     58200   296.92603      7777.6856      1360.8565      72746.238      41.744908      0.9521768    
     58300   295.96003      7644.6123     -486.72785      72736.279      41.743003      0.95230717   
     58400   294.83142      8294.4161      1000.1161      72602.926      41.717478      0.95405632   
     58500   300.67498      7366.5125      447.72929      72672.74       41.730845      0.95313979   
     58600   302.69371      7761.8313     -1718.9264      72763.166      41.748146      0.95195528   
     58700   302.12942      7646.1387      86.745069      72655.436      41.727533      0.95336679   
     58800   297.90267      8305.2393      668.65761      72426.663      41.68369       0.95637818   
     58900   297.63621      8463.7763      977.46179      72229.424      41.645817      0.9589898    
     59000   298.56209      7865.0596      14.130743      72474.282      41.692824      0.95574979   
     59100   304.25178      7840.1046     -596.69108      72711.99       41.738357      0.95262528   
     59200   302.61896      7663.5974     -364.67877      72642.742      41.725102      0.95353339   
     59300   304.14041      8178.6493      1439.3379      72318.294      41.66289       0.95781131   
     59400   295.61641      7543.1997     -451.41489      72269.421      41.653502      0.95845905   
     59500   298.68924      7839.9857      1527.233       72106.994      41.622273      0.96061805   
     59600   299.05113      7964.9082     -227.24345      72136.713      41.627991      0.9602223    
     59700   301.84391      7504.5922      442.82045      72070.855      41.615319      0.96109975   
     59800   299.20885      7880.326      -634.44033      72048.303      41.610978      0.96140058   
     59900   298.98944      7758.6263     -1051.7708      72095.194      41.620003      0.96077528   
     60000   291.84649      7765.0514      592.7079       72096.723      41.620297      0.9607549    
     60100   299.18588      7532.7783     -337.93003      72207.018      41.64151       0.95928736   
     60200   296.60985      8052.1287     -544.39843      72273.126      41.654214      0.95840991   
     60300   300.10871      7859.4267      871.92523      72096.567      41.620267      0.96075699   
     60400   303.27868      7979.4037      1194.2733      71747.893      41.553064      0.96542598   
     60500   304.30969      7689.2312      983.30389      71563.923      41.517518      0.96790781   
     60600   294.7602       8229.2994      220.44625      71521.642      41.50934       0.96848      
     60700   294.98574      7469.6887      465.78335      71715.123      41.546737      0.96586713   
     60800   298.13107      7657.4435      308.27709      72037.979      41.60899       0.96153836   
     60900   298.15873      7754.2256     -1059.3973      72095.054      41.619976      0.96077714   
     61000   299.53216      8306.0183      373.37233      71917.008      41.585686      0.96315576   
     61100   300.44877      7870.0467     -367.53866      71838.159      41.570482      0.96421291   
     61200   301.83744      7788.0364      464.22223      71810.307      41.565109      0.96458689   
     61300   296.0306       7083.7353      296.33296      71791.749      41.561529      0.96483623   
     61400   297.61669      7380.3541      898.06298      71808.16       41.564695      0.96461573   
     61500   292.49445      7828.5598     -517.35816      71865.465      41.575749      0.96384655   
     61600   301.02879      7897.3497      1090.0865      71863.891      41.575445      0.96386766   
     61700   300.47136      7891.4643     -655.61217      71837.767      41.570407      0.96421817   
     61800   299.27585      7657.8372      705.84457      71703.818      41.544553      0.96601942   
     61900   292.63598      7388.6659      154.49429      71601.86       41.524853      0.96739499   
     62000   295.7338       7540.4788      1157.9684      71430.235      41.491649      0.96971933   
     62100   303.24935      7178.7922     -318.89789      71535.215      41.511965      0.96829624   
     62200   299.83496      7644.6309      667.36855      71547.933      41.514425      0.96812413   
     62300   302.69753      7007.5181      1131.2394      71589.406      41.522445      0.96756328   
     62400   296.61852      7668.0308     -478.62151      71615.871      41.527561      0.96720572   
     62500   300.46491      7615.1623      1083.4115      71421.082      41.489876      0.96984361   
     62600   297.2243       7752.6735      509.49787      71437.507      41.493057      0.96962063   
     62700   298.65227      7600.158       258.83325      71444.556      41.494422      0.96952496   
     62800   306.14719      8068.2152      909.1552       71385.53       41.482991      0.97032662   
     62900   302.32574      7309.3153      392.05193      71318.823      41.470066      0.97123421   
     63000   295.76961      7933.3408      241.01172      71220.177      41.450937      0.97257945   
     63100   301.08691      8021.9519      1781.1614      71329.569      41.472148      0.97108789   
     63200   300.07521      7491.0637      126.51788      71542.093      41.513296      0.96820315   
     63300   304.80164      7266.5939      388.68558      71578.428      41.520323      0.96771167   
     63400   302.72558      7398.9663      250.4969       71646.285      41.533439      0.96679514   
     63500   303.24459      7360.6251      398.12106      71617.569      41.527889      0.96718279   
     63600   296.77251      7227.6901     -390.68416      71595.836      41.523688      0.96747638   
     63700   299.81156      7469.5377      276.06678      71575.863      41.519827      0.96774635   
     63800   300.99477      7486.1739      306.66873      71397.386      41.485288      0.97016549   
     63900   302.24223      7881.5817     -409.37882      71193.774      41.445814      0.97294014   
     64000   301.94807      8137.1679      1110.8048      71101.398      41.42788       0.97420419   
     64100   296.93176      7643.6833     -1486.4888      71233.503      41.453522      0.9723975    
     64200   298.35503      7960.5891     -976.08155      71041.389      41.416222      0.97502711   
     64300   297.50022      8079.7409      573.09422      70945.738      41.397626      0.97634167   
     64400   298.3847       7756.9976      168.55577      70927.764      41.39413       0.97658908   
     64500   304.99906      7601.2392     -183.40511      70901.76       41.38907       0.97694726   
     64600   307.6501       7725.0012     -754.84645      71074.036      41.422565      0.97457924   
     64700   299.12233      7553.3622      319.43079      71146.799      41.436696      0.97358253   
     64800   299.67355      7295.4661      798.80325      71109.984      41.429548      0.97408657   
     64900   300.44457      7403.019      -676.43704      71169.729      41.441147      0.97326884   
     65000   300.59955      7992.6775      830.72126      71128.335      41.433111      0.97383525   
     65100   297.29847      8170.9561     -437.86474      70982.386      41.404753      0.97583759   
     65200   303.05935      7472.159       825.15814      70814.911      41.372164      0.97814541   
     65300   301.86159      8024.0494      894.30387      70944.172      41.397321      0.97636322   
     65400   296.54493      7843.0851      736.80924      71177.044      41.442567      0.97316882   
     65500   295.91287      7854.7627      158.94748      71440.365      41.49361       0.96958184   
     65600   298.51024      7334.9049      222.63181      71397.536      41.485317      0.97016345   
     65700   303.5895       7742.6505     -216.88529      71302.577      41.466916      0.9714555    
     65800   301.92059      7783.9869      756.29588      71262.402      41.459127      0.97200317   
     65900   302.20251      7516.0567     -295.20479      71188.806      41.44485       0.97300804   
     66000   299.36432      7599.1816      795.29953      71004.096      41.408974      0.97553922   
     66100   298.81943      7812.6729      458.09147      70997.223      41.407638      0.97563365   
     66200   297.04499      7721.5761     -153.34877      71107.921      41.429147      0.97411483   
     66300   293.84001      7953.506      -499.31006      71059.389      41.41972       0.97478013   
     66400   301.70257      7917.6205      577.8698       70697.487      41.349284      0.97977004   
     66500   300.24866      8215.6127      1174.2682      70311.405      41.273876      0.98514999   
     66600   303.0123       8123.458       1281.8841      70117.962      41.23599       0.98786785   
     66700   300.76163      8062.532       989.29419      70079.622      41.228473      0.9884083    
     66800   295.355        7825.7754     -7.1279936      70306.905      41.272996      0.98521305   
     66900   296.8864       7428.0298      547.08549      70523.523      41.31534       0.9821869    
     67000   298.36955      8101.521       699.09253      70581.652      41.326688      0.981378     
     67100   302.08863      8049.28       -1424.7223      70785.046      41.366347      0.97855811   
     67200   301.59464      7550.3434     -1124.7789      70867.277      41.382359      0.97742263   
     67300   295.31769      7677.8208     -1067.7123      70664.806      41.342911      0.98022317   
     67400   295.53783      7688.3584      1230.8471      70396.365      41.290494      0.98396104   
     67500   299.87994      7742.147       671.98557      70227.607      41.257473      0.98632551   
     67600   298.25374      8135.3652      820.69133      70295.917      41.270845      0.98536705   
     67700   301.25275      7800.1393     -1044.7072      70546.827      41.31989       0.98186245   
     67800   298.73002      7869.2719      1237.699       70587.045      41.327741      0.98130302   
     67900   299.20531      7302.2551     -922.63261      70482.978      41.307421      0.9827519    
     68000   294.37275      7443.4137      55.738076      70215.822      41.255165      0.98649106   
     68100   300.18148      7726.955      -389.38044      70015.406      41.215876      0.98931484   
     68200   301.75724      7497.0177      1507.0718      69719.657      41.157762      0.99351149   
     68300   301.32211      7431.5836      282.63294      69650.393      41.144127      0.99449949   
     68400   301.51387      7550.6683     -1078.2737      69748.341      41.163405      0.9931029    
     68500   299.82605      7967.6562     -82.911133      69837.677      41.180972      0.99183253   
     68600   294.75965      7833.1248     -799.74725      69948.565      41.202756      0.9902602    
     68700   302.38812      7691.6522      661.23049      69810.127      41.175556      0.99222395   
     68800   308.53718      7851.3938      211.02366      69712.548      41.156363      0.99361281   
     68900   308.96416      7695.2613      1036.4066      69572.156      41.128716      0.99561785   
     69000   307.77084      7427.5766      1027.1084      69661.981      41.146409      0.99433405   
     69100   297.89554      7634.6605      412.62271      69865.17       41.186375      0.99144223   
     69200   298.14172      7675.0411      571.79522      70095.153      41.231519      0.9881893    
     69300   300.76155      7703.4027     -824.80717      70246.279      41.261129      0.98606334   
     69400   300.41016      7678.916       196.64288      70331.219      41.277753      0.98487246   
     69500   304.19101      8231.3791      1260.9973      70258.693      41.263559      0.98588911   
[...]
   2482100   300.49912      6809.8025     -839.58229      55900.557      38.235964      1.2391161    
   2482200   304.76201      6776.9425     -519.74161      55837.914      38.221676      1.2405062    
   2482300   301.60737      7158.7807      973.70714      55742.115      38.199805      1.2426382    
   2482400   306.64133      7091.2601      345.83092      55702.572      38.19077       1.2435203    
   2482500   300.18566      6893.7237     -593.62944      55731.278      38.197329      1.2428798    
   2482600   304.98538      6505.2542      1052.0429      55766.642      38.205407      1.2420916    
   2482700   296.6957       6723.1003      837.19341      55861.266      38.227004      1.2399877    
   2482800   296.85556      6690.6374     -484.86412      56071.848      38.274979      1.2353308    
   2482900   300.91805      6895.8802     -93.685249      56122.402      38.286478      1.234218     
   2483000   305.13226      7466.0924      570.96657      55986.971      38.255656      1.2372036    
   2483100   303.51678      7021.7634      1478.4136      55752.321      38.202136      1.2424107    
   2483200   298.48524      7068.9201     -161.62359      55714.915      38.193591      1.2432448    
   2483300   302.66784      7043.0067      2004.7922      55807.069      38.214637      1.2411919    
   2483400   301.9165       6362.1319     -862.83946      56065.376      38.273506      1.2354734    
   2483500   298.04893      6452.7053     -133.63742      56210.184      38.306429      1.2322906    
   2483600   301.64571      6513.2426     -370.59314      56245.995      38.314562      1.231506     
   2483700   299.40583      6499.8213      431.64317      56102.339      38.281915      1.2346594    
   2483800   301.66636      6748.1707      92.502418      55943.25       38.245696      1.2381705    
   2483900   296.79156      6464.5262     -252.94737      55863.297      38.227467      1.2399426    
   2484000   298.93786      6628.4805      901.83214      55780.26       38.208517      1.2417884    
   2484100   302.52403      6460.2261     -10.086167      55841.391      38.22247       1.240429     
   2484200   303.00429      7049.5124     -1620.0201      55886.625      38.232787      1.239425     
   2484300   301.61893      6882.051       762.75132      55911.331      38.23842       1.2388773    
   2484400   301.8444       6817.5787      1167.3133      55916.475      38.239593      1.2387633    
   2484500   301.37159      6984.4006      487.77992      55880.977      38.231499      1.2395503    
   2484600   294.86694      7074.1395     -914.2186       55799.947      38.213011      1.2413503    
   2484700   300.45617      6804.6331     -593.7837       55750.458      38.201711      1.2424522    
   2484800   301.1946       6922.2849     -268.69652      55859.644      38.226634      1.2400237    
   2484900   300.29693      7228.0916      1226.6104      55920.278      38.24046       1.2386791    
   2485000   300.357        6899.9185     -1510.511       56148.946      38.292513      1.2336346    
   2485100   297.95235      6780.3796     -261.45425      56341.141      38.336154      1.2294263    
   2485200   298.93919      6451.9867     -1618.9848      56329.158      38.333436      1.2296878    
   2485300   306.69928      6915.2482     -1334.4329      56075.047      38.275707      1.2352603    
   2485400   303.96405      6743.5186      452.56878      55780.03       38.208464      1.2417935    
   2485500   297.0647       6912.1357      531.30339      55694.937      38.189025      1.2436908    
   2485600   297.50948      7474.1406      510.02099      55731.09       38.197287      1.242884     
   2485700   301.21116      6341.2064     -756.38233      55852.848      38.225083      1.2401745    
   2485800   300.01293      6798.2293      604.03009      55932.036      38.24314       1.2384187    
   2485900   306.77273      6773.2112      794.68206      56033.903      38.266343      1.2361673    
   2486000   303.88991      7132.1676     -302.08654      56150.706      38.292913      1.2335959    
   2486100   301.79676      7108.721      -17.521924      56260.609      38.31788       1.2311861    
   2486200   296.97758      6525.7081     -1336.9596      56297.289      38.326206      1.2303839    
   2486300   302.08294      6355.1334     -440.82368      56241.225      38.313479      1.2316104    
   2486400   301.85996      7074.2386      530.74617      56013.357      38.261665      1.2366208    
   2486500   299.09156      7086.9714      1150.9756      55824.543      38.218625      1.2408033    
   2486600   301.40806      7203.383       722.64107      55861.608      38.227082      1.2399801    
   2486700   298.60014      7079.0591      104.15269      55860.042      38.226724      1.2400148    
   2486800   299.37831      7313.1329     -246.40922      55888.667      38.233253      1.2393797    
   2486900   298.98755      6966.6675      337.27906      55960.354      38.249593      1.237792     
   2487000   297.50074      6920.1535     -941.54469      56080.088      38.276853      1.2351493    
   2487100   298.94633      6833.2474     -893.20928      56062.528      38.272858      1.2355362    
   2487200   300.50669      6800.3843      519.01479      56021.596      38.263541      1.2364389    
   2487300   302.86604      7163.5437      606.11291      55906.03       38.237212      1.2389948    
   2487400   304.26365      7362.1492      589.38253      55831.653      38.220248      1.2406453    
   2487500   296.80076      7055.9877     -235.55843      55990.378      38.256432      1.2371283    
   2487600   297.39501      7012.8265     -1131.6625      56070.274      38.27462       1.2353655    
   2487700   297.94198      7412.5949     -94.536523      56015.89       38.262242      1.2365648    
   2487800   302.37003      7257.1408     -159.87645      56006.734      38.260157      1.236767     
   2487900   300.23033      6912.1001     -571.41048      56079.038      38.276615      1.2351724    
   2488000   302.52009      7298.2362     -793.09226      56156.279      38.29418       1.2334735    
   2488100   303.39734      6986.7718     -782.87275      55994.29       38.257323      1.2370419    
   2488200   298.98725      7283.7002      459.52224      55599.645      38.167233      1.2458223    
   2488300   294.91352      7499.6799     -565.72535      55519.324      38.148845      1.2476247    
   2488400   292.82402      7259.6872      680.96764      55656.567      38.180253      1.2445482    
   2488500   301.14227      7363.291       1294.1922      55970.868      38.251988      1.2375595    
   2488600   300.97017      7322.7081      1315.9298      56165.268      38.296223      1.233276     
   2488700   297.64472      7502.3827      47.321306      56207.172      38.305745      1.2323566    
   2488800   302.15427      7252.9752      78.946597      56211.366      38.306698      1.2322647    
   2488900   299.48967      7511.6304      684.08744      56158.379      38.294657      1.2334273    
   2489000   298.05027      7049.7998      1057.5716      56118.174      38.285516      1.234311     
   2489100   304.9517       7015.8913      909.14594      56172.004      38.297754      1.2331282    
   2489200   303.60937      7410.6742      574.57396      56290.55       38.324677      1.2305312    
   2489300   297.67465      6881.0575      1124.4625      56307.812      38.328593      1.230154     
   2489400   298.10065      6469.6997     -1172.8197      56248.635      38.315162      1.2314482    
   2489500   301.7165       6423.3066     -675.14614      56174.214      38.298256      1.2330797    
   2489600   299.42038      7147.4867      40.458554      55895.948      38.234913      1.2392183    
   2489700   305.19643      7134.9103      1408.2647      55666.138      38.182442      1.2443342    
   2489800   298.42782      6689.7753     -495.20739      55774.259      38.207147      1.241922     
   2489900   302.64526      6025.1104     -681.58451      55914.065      38.239044      1.2388168    
   2490000   295.41656      6291.8757      1341.0852      55991.214      38.256623      1.2371098    
   2490100   299.01868      6412.093      -1324.7044      56101.876      38.28181       1.2346696    
   2490200   295.69154      6914.3718     -1085.9131      56049.178      38.26982       1.2358304    
   2490300   296.30724      6632.9473     -505.51331      55983.361      38.254834      1.2372833    
   2490400   303.96489      6518.2144      884.01535      55767.889      38.205692      1.2420639    
   2490500   304.41111      7092.7287     -14.957717      55640.587      38.176599      1.2449056    
   2490600   296.76473      6835.8356     -911.7533       55796.418      38.212206      1.2414288    
   2490700   295.27833      7291.1241      55.491124      55978.475      38.253721      1.2373913    
   2490800   301.35586      6545.7349     -368.83887      56025.891      38.264519      1.2363441    
   2490900   301.01625      6936.0174      272.99638      56017.045      38.262505      1.2365393    
   2491000   300.01758      7114.8654     -1535.6969      56026.396      38.264634      1.236333     
   2491100   296.65279      7025.0474     -1255.1516      56054.848      38.27111       1.2357054    
   2491200   301.12572      7049.0281      1441.1548      56011.451      38.261231      1.2366629    
   2491300   301.95017      6760.324      -1727.0177      56090.56       38.279236      1.2349187    
   2491400   306.53537      7169.1718      104.64176      56081.686      38.277217      1.2351141    
   2491500   300.99944      7207.0264     -32.821006      56021.096      38.263427      1.2364499    
   2491600   301.64894      6953.5132      1187.0235      55988.772      38.256067      1.2371638    
   2491700   296.80423      6364.1082     -145.66727      56110.39       38.283746      1.2344822    
   2491800   300.79297      6963.8108     -1559.0942      56187.096      38.301184      1.2327969    
   2491900   296.77736      6376.8788     -639.38845      56176.215      38.298711      1.2330357    
   2492000   302.97006      6174.5157     -1066.5402      56050.102      38.27003       1.2358101    
   2492100   303.49221      6701.6566     -1854.1078      55855.629      38.225718      1.2401128    
   2492200   299.9221       6611.5584     -526.32698      55817.577      38.217035      1.2409582    
   2492300   295.90186      6692.7704     -275.738        55893.716      38.234404      1.2392678    
   2492400   300.43307      6660.4709     -551.55511      55865.404      38.227947      1.2398958    
   2492500   300.27195      7268.9058     -372.10813      55846.128      38.22355       1.2403238    
   2492600   300.47233      6745.4304     -663.57054      55915.649      38.239405      1.2387816    
   2492700   299.98462      6271.3868     -1321.1564      56097.919      38.28091       1.2347567    
   2492800   305.53931      6646.8946      221.35245      56114.449      38.284669      1.234393     
   2492900   298.85053      6698.452      -578.0052       55922.925      38.241063      1.2386205    
   2493000   300.2196       7002.4321     -1079.2159      55795.907      38.212089      1.2414402    
   2493100   297.70534      6577.5626      604.66751      55760.718      38.204054      1.2422236    
   2493200   295.7149       6683.5841      1432.9452      55851.472      38.224769      1.2402051    
   2493300   298.77694      6467.9592     -720.12566      56009.468      38.26078       1.2367066    
   2493400   303.75824      6473.9781     -11.869021      56184.851      38.300674      1.2328462    
   2493500   299.50098      6842.5412     -198.94852      56192.508      38.302413      1.2326782    
   2493600   295.94781      6458.8223     -289.46873      56117.591      38.285384      1.2343238    
   2493700   295.44923      6435.5092      231.80664      55989.939      38.256332      1.237138     
   2493800   298.95458      6797.4198      426.57016      55902.114      38.236319      1.2390816    
   2493900   298.7548       6802.0776      1741.5788      55867.477      38.22842       1.2398498    
   2494000   301.38511      6362.2138     -1204.9472      56006.831      38.260179      1.2367648    
   2494100   294.7488       6769.8425      465.9784       56033.737      38.266305      1.236171     
   2494200   294.93178      7431.2535      516.05095      56206.259      38.305537      1.2323766    
   2494300   294.22065      6960.6974     -1086.5981      56343.059      38.336589      1.2293845    
   2494400   302.85526      6862.9971     -923.30189      56234.107      38.311863      1.2317663    
   2494500   296.94242      6951.8732     -1035.1661      56082.784      38.277467      1.2350899    
   2494600   303.74102      7542.1757      1138.5184      55968.649      38.251483      1.2376086    
   2494700   298.40927      6979.6477     -94.932927      56128.733      38.287918      1.2340788    
   2494800   299.57156      6864.7519     -89.207921      56372.205      38.343199      1.2287488    
   2494900   294.84818      6232.0411      108.48489      56482.602      38.368212      1.2263472    
   2495000   302.67007      6788.8074     -1800.1491      56328.023      38.333179      1.2297126    
   2495100   305.50287      6681.1237      1645.7876      56100.54       38.281506      1.234699     
   2495200   298.79297      7246.6405     -137.73334      56084.751      38.277914      1.2350466    
   2495300   298.50216      6847.834       1670.8089      56024.069      38.264104      1.2363843    
   2495400   299.91763      6955.3711      799.50148      56058.104      38.271851      1.2356337    
   2495500   302.12634      6986.0443      246.42568      56051.017      38.270238      1.2357899    
   2495600   302.10634      6677.0594      680.71293      55960.924      38.249723      1.2377794    
   2495700   303.58096      6778.4302      528.50504      55869.811      38.228953      1.239798     
   2495800   299.6027       7120.5749      219.84513      55835.675      38.221165      1.240556     
   2495900   300.8175       6605.7997     -440.35268      55796.249      38.212167      1.2414326    
   2496000   303.40168      6725.6831      907.72345      55675.722      38.184633      1.24412      
   2496100   301.89776      6925.5986     -2065.0724      55725.132      38.195925      1.2430169    
   2496200   298.45429      7345.2494     -139.13725      55785.798      38.209781      1.2416651    
   2496300   295.06731      6538.4974      239.12992      55983.474      38.25486       1.2372809    
   2496400   304.33453      6397.0213      795.60255      56050.4        38.270098      1.2358035    
   2496500   303.54771      6797.4767     -195.3403       56052.031      38.270469      1.2357675    
   2496600   299.50552      7011.2873      672.79881      56203.602      38.304934      1.2324349    
   2496700   301.53898      7538.8922     -696.52979      56302.924      38.327484      1.2302608    
   2496800   296.92144      6822.6979      10.396045      56286.02       38.323648      1.2306303    
   2496900   298.05204      6947.2952     -241.86264      56197.097      38.303456      1.2325776    
   2497000   298.72768      7050.3998      986.37201      56054.957      38.271135      1.235703     
   2497100   299.18168      7013.9743      11.653385      55994          38.257257      1.2370483    
   2497200   297.33029      7511.9419      1101.3707      55921.98       38.240848      1.2386414    
   2497300   299.9784       7059.7076     -89.233337      56049.55       38.269904      1.2358222    
   2497400   295.10464      7112.5579     -297.21668      56151.246      38.293036      1.233584     
   2497500   298.96679      7034.4252      609.51992      55973.442      38.252575      1.2375026    
   2497600   297.93499      7423.7605      446.82453      55917.676      38.239867      1.2387367    
   2497700   305.274        6888.4413     -956.34553      55952.617      38.24783       1.2379632    
   2497800   300.38133      6859.3847     -235.69249      56039.102      38.267526      1.2360526    
   2497900   298.16367      6246.8345      267.07086      56012.294      38.261423      1.2366442    
   2498000   302.17601      6346.3082      412.09173      55961.793      38.249921      1.2377602    
   2498100   300.30081      6372.9896     -1437.8078      55913.704      38.238961      1.2388247    
   2498200   298.47082      6974.1154     -13.254961      55818.481      38.217242      1.2409381    
   2498300   302.02378      6970.0643     -399.48745      55810.598      38.215442      1.2411134    
   2498400   298.02945      6770.6326     -331.26905      55885.633      38.232561      1.239447     
   2498500   296.11393      7210.5256     -2.7079909      55753.422      38.202388      1.2423862    
   2498600   298.50388      6653.3252     -493.65249      55549.665      38.155793      1.2469432    
   2498700   298.71644      7619.1588      1708.5151      55394.432      38.120218      1.2504376    
   2498800   301.57802      6565.3652      1259.62        55465.299      38.136467      1.2488399    
   2498900   298.59544      7160.8856     -548.75408      55655.356      38.179976      1.2445753    
   2499000   296.42393      6731.0524     -111.20438      55934.464      38.243693      1.238365     
   2499100   303.74152      6437.8554     -854.4303       56162.53       38.295601      1.2333362    
   2499200   301.0686       6610.0139     -1901.885       56174.431      38.298306      1.2330749    
   2499300   297.85462      6435.1913     -1966.8125      56062.703      38.272898      1.2355323    
   2499400   296.98061      6629.1775      1074.5542      55791.421      38.211065      1.24154      
   2499500   300.96615      6503.3396      717.57687      55553.673      38.15671       1.2468533    
   2499600   300.84902      6617.8116      468.72345      55493.436      38.142914      1.2482067    
   2499700   304.35253      6687.3572     -1420.6301      55627.076      38.173508      1.245208     
   2499800   305.09844      6743.1818      76.138564      55724.445      38.195768      1.2430322    
   2499900   300.24936      6813.163       1138.4479      55832.27       38.220388      1.2406316    
   2500000   298.26941      7196.8266     -1585.9416      55832.783      38.220505      1.2406202    
   2500044   293.83922      6760.0672     -238.892        55783.614      38.209282      1.2417137    
Loop time of 8949.51 on 4 procs for 600000 steps with 6064 atoms

Performance: 5.792 ns/day, 4.143 hours/ns, 67.043 timesteps/s
54.6% CPU use with 1 MPI tasks x 4 OpenMP threads

MPI task timing breakdown:
Section |  min time  |  avg time  |  max time  |%varavg| %total
---------------------------------------------------------------
Pair    | 6609.9     | 6609.9     | 6609.9     |   0.0 | 73.86
Bond    | 835.19     | 835.19     | 835.19     |   0.0 |  9.33
Neigh   | 841.98     | 841.98     | 841.98     |   0.0 |  9.41
Comm    | 99.716     | 99.716     | 99.716     |   0.0 |  1.11
Output  | 2.0353     | 2.0353     | 2.0353     |   0.0 |  0.02
Modify  | 548.07     | 548.07     | 548.07     |   0.0 |  6.12
Other   |            | 12.58      |            |       |  0.14

Nlocal:           6064 ave        6064 max        6064 min
Histogram: 1 0 0 0 0 0 0 0 0 0
Nghost:          19842 ave       19842 max       19842 min
Histogram: 1 0 0 0 0 0 0 0 0 0
Neighs:    2.35359e+06 ave 2.35359e+06 max 2.35359e+06 min
Histogram: 1 0 0 0 0 0 0 0 0 0

Total # of neighbors = 2353593
Ave neighs/atom = 388.12549
Ave special neighs/atom = 11.492084
Neighbor list builds = 29562
Dangerous builds = 0
unfix             5


#final
write_data		PVA_NP_OXY_LARGE_EQUILIBRATED_WITH_CHARGE.data
System init for write_data ...
Generated 78 of 78 mixed pair_coeff terms from geometric mixing rule
Last active /omp style is dihedral_style harmonic/omp

#parameter
neighbor		2.0 bin
Total wall time: 10:44:15
