LAMMPS (15 Sep 2022)
OMP_NUM_THREADS environment is not set. Defaulting to 1 thread. (src/comm.cpp:98)
  using 1 OpenMP thread(s) per MPI task
Loaded 1 plugins from C:\Users\HP\AppData\Local\LAMMPS 64-bit 15Sep2022\plugins
package omp 0
using multi-threaded neighbor list subroutines
package omp 4
set 4 OpenMP thread(s) per MPI task
using multi-threaded neighbor list subroutines
# Initialization
units			real
dimension		3
processors		* * *
boundary		p p p
atom_style		full
pair_style		lj/cut/coul/cut 10.0
bond_style		harmonic
angle_style 	harmonic
dihedral_style  harmonic
read_data		temp.data
Reading data file ...
  orthogonal box = (0.0002 0.002796 -0.00163) to (39.401018 39.403614 39.399188)
  1 by 1 by 1 MPI processor grid
  reading atoms ...
  6487 atoms
  reading velocities ...
  6487 velocities
  scanning bonds ...
  4 = max bonds/atom
  scanning angles ...
  6 = max angles/atom
  scanning dihedrals ...
  12 = max dihedrals/atom
  reading bonds ...
  6576 bonds
  reading angles ...
  12293 angles
  reading dihedrals ...
  19554 dihedrals
Finding 1-2 1-3 1-4 neighbors ...
  special bond factors lj:    0        0        0       
  special bond factors coul:  0        0        0       
     4 = max # of 1-2 neighbors
     7 = max # of 1-3 neighbors
    16 = max # of 1-4 neighbors
    20 = max # of special neighbors
  special bonds CPU = 0.006 seconds
  read_data CPU = 0.255 seconds



thermo			100
thermo_style	custom step temp pe evdwl ecoul edihed press vol lx density



timestep 1


#intial minimization
minimize		1.0e-5 1.0e-5 10000 10000
Switching to 'neigh_modify every 1 delay 0 check yes' setting during minimization
Generated 231 of 231 mixed pair_coeff terms from geometric mixing rule
Last active /omp style is dihedral_style harmonic/omp
Neighbor list info ...
  update: every = 1 steps, delay = 0 steps, check = yes
  max neighbors/atom: 2000, page size: 100000
  master list distance cutoff = 12
  ghost atom cutoff = 12
  binsize = 6, bins = 7 7 7
  1 neighbor lists, perpetual/occasional/extra = 1 0 0
  (1) pair lj/cut/coul/cut/omp, perpetual
      attributes: half, newton on, omp
      pair build: half/bin/newton/omp
      stencil: half/bin/3d
      bin: standard
WARNING: Inconsistent image flags (src/domain.cpp:819)
Per MPI rank memory allocation (min/avg/max) = 42.56 | 42.56 | 42.56 Mbytes
   Step          Temp          PotEng         E_vdwl         E_coul        E_dihed         Press          Volume           Lx          Density    
         0   0              499071.65     -3047.356       2019.1044      1514.5978     -524056.44      61166.794      39.400818      1.212294     
        73   0              8863.5176     -2712.389       1939.1983      1609.4063     -16053.757      61166.794      39.400818      1.212294     
Loop time of 4.75254 on 4 procs for 73 steps with 6487 atoms

124.6% CPU use with 1 MPI tasks x 4 OpenMP threads

Minimization stats:
  Stopping criterion = linesearch alpha is zero
  Energy initial, next-to-last, final = 
      499071.653305005   8863.51761584889   8863.51761584889
  Force two-norm initial, final = 41968.844 293.54517
  Force max component initial, final = 4891.5797 39.597679
  Final line search alpha, max atom move = 8.3339451e-14 3.3000489e-12
  Iterations, force evaluations = 73 156

MPI task timing breakdown:
Section |  min time  |  avg time  |  max time  |%varavg| %total
---------------------------------------------------------------
Pair    | 4.1524     | 4.1524     | 4.1524     |   0.0 | 87.37
Bond    | 0.289      | 0.289      | 0.289      |   0.0 |  6.08
Neigh   | 0.18766    | 0.18766    | 0.18766    |   0.0 |  3.95
Comm    | 0.041025   | 0.041025   | 0.041025   |   0.0 |  0.86
Output  | 0          | 0          | 0          |   0.0 |  0.00
Modify  | 0.051963   | 0.051963   | 0.051963   |   0.0 |  1.09
Other   |            | 0.0305     |            |       |  0.64

Nlocal:           6487 ave        6487 max        6487 min
Histogram: 1 0 0 0 0 0 0 0 0 0
Nghost:          20448 ave       20448 max       20448 min
Histogram: 1 0 0 0 0 0 0 0 0 0
Neighs:    2.45057e+06 ave 2.45057e+06 max 2.45057e+06 min
Histogram: 1 0 0 0 0 0 0 0 0 0

Total # of neighbors = 2450573
Ave neighs/atom = 377.76676
Ave special neighs/atom = 11.83043
Neighbor list builds = 6
Dangerous builds = 0

# nvt for 200 ps
fix			1 all nvt temp 300 300 100
run			150000
Generated 231 of 231 mixed pair_coeff terms from geometric mixing rule
Last active /omp style is dihedral_style harmonic/omp
WARNING: Inconsistent image flags (src/domain.cpp:819)
Per MPI rank memory allocation (min/avg/max) = 40.31 | 40.31 | 40.31 Mbytes
   Step          Temp          PotEng         E_vdwl         E_coul        E_dihed         Press          Volume           Lx          Density    
        73   0              8863.5176     -2712.389       1939.1983      1609.4063     -16053.757      61166.794      39.400818      1.212294     
       100   73.880098      7784.2917     -2743.181       2277.8924      1588.3656     -14089.164      61166.794      39.400818      1.212294     
       200   213.51912      5165.8342     -2193.7381      1842.0118      1722.222       3601.3011      61166.794      39.400818      1.212294     
       300   230.84428      6268.978      -2038.6014      2590.5701      1804.4312      7578.2904      61166.794      39.400818      1.212294     
       400   243.60005      7411.9739     -2135.1997      3488.9083      1944.9688      5863.3001      61166.794      39.400818      1.212294     
       500   257.39961      6502.3622     -2110.0886      2243.5933      1963.1948      5129.2703      61166.794      39.400818      1.212294     
       600   285.83776      6920.6775     -2038.8723      2472.796       1905.5001      8691.429       61166.794      39.400818      1.212294     
       700   294.06935      7064.9089     -2089.029       2235.9992      1992.3116      6643.8805      61166.794      39.400818      1.212294     
       800   301.30701      8003.055      -2057.5066      2915.5335      2010.973       6377.999       61166.794      39.400818      1.212294     
       900   305.8583       7625.8054     -2096.2283      2415.7897      2002.0059      4819.61        61166.794      39.400818      1.212294     
      1000   304.34389      7663.6297     -2113.0848      2496.7542      2001.2537      5423.6525      61166.794      39.400818      1.212294     
      1100   300.06517      7188.5042     -2251.4181      2173.2699      1982.8788      3345.7796      61166.794      39.400818      1.212294     
      1200   292.74249      6683.4415     -2295.4985      1673.0807      1985.5569      4706.8634      61166.794      39.400818      1.212294     
      1300   296.58012      7222.206      -2297.1368      2256.021       1958.6493      3299.6819      61166.794      39.400818      1.212294     
      1400   289.89419      7676.049      -2215.5053      2423.5383      2032.8387      4939.0959      61166.794      39.400818      1.212294     
      1500   305.94322      8331.9139     -2244.0712      3036.6747      2013.5069      3842.7268      61166.794      39.400818      1.212294     
      1600   309.36569      7705.6141     -2296.5542      2528.6629      1994.5538      4171.973       61166.794      39.400818      1.212294     
      1700   305.23653      8615.8034     -2403.8074      3530.0621      2005.7315      3447.3216      61166.794      39.400818      1.212294     
      1800   299.14024      6988.844      -2346.8124      1836.7249      1961.8096      1175.5495      61166.794      39.400818      1.212294     
      1900   295.03209      6992.8124     -2392.2156      1931.3415      1953.8043      2585.5864      61166.794      39.400818      1.212294     
      2000   300.62972      7426.4601     -2372.8544      2353.7996      1977.9245      4932.4076      61166.794      39.400818      1.212294     
      2100   305.06755      7223.8409     -2347.6603      2047.0553      1947.859       4311.4155      61166.794      39.400818      1.212294     
      2200   304.6165       7408.9111     -2388.0851      2153.7149      1909.705       3575.8739      61166.794      39.400818      1.212294     
      2300   304.10772      7666.8721     -2429.0829      2472.9082      1946.9285      3405.4753      61166.794      39.400818      1.212294     
      2400   297.96432      7373.5037     -2423.81        2166.151       1927.0718      2418.0034      61166.794      39.400818      1.212294     
      2500   295.7198       7615.4445     -2364.2176      2317.8778      1944.4546      2493.1863      61166.794      39.400818      1.212294     
      2600   300.24526      7255.3867     -2438.0565      2037.6429      1882.1823      3287.9385      61166.794      39.400818      1.212294     
      2700   304.99284      7930.1027     -2500.0767      2769.3874      1916.5095      3270.3086      61166.794      39.400818      1.212294     
      2800   301.69729      7361.3937     -2574.0583      2240.5472      1913.824       1499.4273      61166.794      39.400818      1.212294     
      2900   298.39305      6953.731      -2492.5335      1790.9534      1888.9181      1905.9078      61166.794      39.400818      1.212294     
      3000   297.854        6989.2636     -2542.1593      1839.1719      1909.4776      2455.1892      61166.794      39.400818      1.212294     
      3100   300.83639      7288.0742     -2556.7751      2205.845       1869.8119     -79.340857      61166.794      39.400818      1.212294     
      3200   299.37137      7277.5193     -2565.4094      2070.2156      1882.5825      1024.1005      61166.794      39.400818      1.212294     
      3300   299.16977      7655.4475     -2590.1777      2413.3982      1882.0379      940.24471      61166.794      39.400818      1.212294     
      3400   303.73229      7833.4051     -2515.6261      2635.7357      1818.8973      2622.5125      61166.794      39.400818      1.212294     
      3500   298.3301       7189.4699     -2538.9543      1941.1447      1836.5716      2341.1781      61166.794      39.400818      1.212294     
      3600   299.34381      7127.6173     -2572.5441      1902.7816      1856.5014      1804.5552      61166.794      39.400818      1.212294     
      3700   297.22508      7067.3543     -2509.6203      1817.4737      1831.1687      1177.6821      61166.794      39.400818      1.212294     
      3800   300.33         7321.6815     -2583.3808      2160.6989      1866.8126      1911.409       61166.794      39.400818      1.212294     
      3900   304.12416      7130.5412     -2691.8802      2066.3352      1832.2396      1769.4739      61166.794      39.400818      1.212294     
      4000   295.91842      7179.6176     -2613.6245      1907.1562      1845.8457     -399.0938       61166.794      39.400818      1.212294     
      4100   294.9389       7742.1915     -2524.5766      2334.0868      1834.7667      756.97589      61166.794      39.400818      1.212294     
      4200   301.25994      7135.5745     -2560.695       1826.6093      1843.0248      1182.3095      61166.794      39.400818      1.212294     
      4300   301.87984      7082.316      -2579.6955      1816.6196      1816.5055      1226.3093      61166.794      39.400818      1.212294     
      4400   298.20707      6873.7279     -2612.4255      1710.9644      1825.6501      521.61554      61166.794      39.400818      1.212294     
      4500   297.57586      6990.8207     -2600.0646      1846.4783      1830.2371      1347.438       61166.794      39.400818      1.212294     
      4600   299.995        6621.4084     -2661.0695      1493.7068      1825.9894      1251.2119      61166.794      39.400818      1.212294     
      4700   298.83673      7355.8496     -2584.5378      2086.6522      1837.4736      1217.3581      61166.794      39.400818      1.212294     
      4800   303.71431      7324.9002     -2689.7005      2070.7214      1826.2373      634.78835      61166.794      39.400818      1.212294     
      4900   303.28034      7465.3011     -2634.9214      2163.0447      1806.0988      389.93457      61166.794      39.400818      1.212294     
      5000   300.88727      7351.0742     -2649.8513      2122.954       1818.2298      1352.214       61166.794      39.400818      1.212294     
      5100   303.18134      6947.3558     -2689.4964      1892.8271      1826.2148     -181.76562      61166.794      39.400818      1.212294     
      5200   297.11386      7370.4557     -2644.8081      2245.0807      1772.8697      2008.4334      61166.794      39.400818      1.212294     
      5300   300.19814      6989.9132     -2726.1086      1846.9606      1790.9038      184.93871      61166.794      39.400818      1.212294     
      5400   303.68904      7557.7985     -2654.5148      2279.4502      1769.8802      866.04711      61166.794      39.400818      1.212294     
      5500   307.26831      7278.9891     -2645.8862      2126.6291      1790.756       1072.2071      61166.794      39.400818      1.212294     
      5600   296.68102      7686.1519     -2728.4315      2496.8476      1823.3414      34.724976      61166.794      39.400818      1.212294     
      5700   300.85591      7197.3311     -2743.5568      2144.9145      1771.9066      271.58477      61166.794      39.400818      1.212294     
      5800   299.33179      6911.2534     -2745.6978      1779.8382      1809.5974     -301.84051      61166.794      39.400818      1.212294     
      5900   300.40016      6745.3175     -2708.0759      1590.9236      1805.5874      834.1511       61166.794      39.400818      1.212294     
      6000   300.75346      7239.5609     -2671.1279      2051.0615      1753.36        988.40118      61166.794      39.400818      1.212294     
      6100   302.43158      7126.3672     -2683.4015      1945.235       1747.2041      1728.2158      61166.794      39.400818      1.212294     
      6200   299.54087      7209.6345     -2711.9567      2003.9812      1752.3185      474.12117      61166.794      39.400818      1.212294     
      6300   296.97225      7159.7634     -2789.0205      2003.8088      1766.3494      126.73282      61166.794      39.400818      1.212294     
      6400   295.11383      7949.7845     -2715.578       2706.7868      1741.4743      12.919581      61166.794      39.400818      1.212294     
      6500   298.48052      7551.4085     -2704.9992      2367.9706      1746.3537      94.592553      61166.794      39.400818      1.212294     
      6600   300.1413       7964.9156     -2769.0187      2718.4348      1751.1264      36.924441      61166.794      39.400818      1.212294     
      6700   302.43149      7796.4306     -2811.5008      2641.3616      1801.4689     -1380.8576      61166.794      39.400818      1.212294     
      6800   300.524        7519.2699     -2789.2597      2252.3941      1792.4862     -36.529129      61166.794      39.400818      1.212294     
      6900   302.82846      6700.076      -2722.5616      1494.6555      1764.8404     -186.85558      61166.794      39.400818      1.212294     
      7000   293.52982      7193.4902     -2765.1464      1966.443       1751.3975      43.953069      61166.794      39.400818      1.212294     
      7100   297.57725      7568.3439     -2779.1445      2412.0598      1741.8787      464.96419      61166.794      39.400818      1.212294     
      7200   299.73879      7156.5376     -2771.7005      1961.1848      1754.1139      517.64416      61166.794      39.400818      1.212294     
      7300   303.4162       7929.3508     -2727.2643      2611.584       1774.2481     -189.23091      61166.794      39.400818      1.212294     
      7400   305.15577      7420.188      -2740.5288      2176.5202      1738.877      -740.54242      61166.794      39.400818      1.212294     
      7500   299.94403      7487.6578     -2748.214       2318.8333      1722.2435      732.03544      61166.794      39.400818      1.212294     
      7600   301.45544      7222.525      -2829.8286      2126.7729      1719.987      -547.77321      61166.794      39.400818      1.212294     
      7700   301.1256       7597.7879     -2755.0874      2449.6481      1747.5673      181.56923      61166.794      39.400818      1.212294     
      7800   294.5533       7499.8897     -2762.8654      2251.0122      1774.2126      797.48141      61166.794      39.400818      1.212294     
      7900   300.27229      7651.1169     -2755.0497      2380.8328      1744.952       1121.9739      61166.794      39.400818      1.212294     
      8000   303.85617      7023.7764     -2706.101       1669.1562      1765.9892      697.16454      61166.794      39.400818      1.212294     
      8100   300.78366      7087.8023     -2724.4479      1768.469       1725.8627      218.38348      61166.794      39.400818      1.212294     
      8200   300.96834      7022.7595     -2810.5426      1854.3062      1728.8256      166.14996      61166.794      39.400818      1.212294     
      8300   299.13185      7062.8885     -2762.7284      1886.1258      1688.6873     -1390.4095      61166.794      39.400818      1.212294     
      8400   301.5815       7486.9253     -2805.4756      2378.206       1715.6057      1171.5669      61166.794      39.400818      1.212294     
      8500   303.67152      7637.6932     -2766.9379      2391.4135      1693.6373      1915.6817      61166.794      39.400818      1.212294     
      8600   305.98718      7745.9176     -2739.3101      2463.7931      1727.8942      686.61068      61166.794      39.400818      1.212294     
      8700   296.18519      7248.9159     -2777.1361      1942.0571      1721.5245      1010.5353      61166.794      39.400818      1.212294     
      8800   298.56006      7094.2665     -2798.886       1914.04        1754.6932      793.60478      61166.794      39.400818      1.212294     
      8900   298.5356       7690.1488     -2754.9096      2461.7875      1729.5677      176.68925      61166.794      39.400818      1.212294     
      9000   299.19977      7126.9648     -2792.0358      1860.4255      1712.9388     -21.550737      61166.794      39.400818      1.212294     
      9100   300.28349      6972.5168     -2804.3461      1682.4315      1734.6211      49.149758      61166.794      39.400818      1.212294     
      9200   299.60843      7565.0912     -2763.7         2326.9125      1716.0768      731.15291      61166.794      39.400818      1.212294     
      9300   295.79672      7035.7086     -2764.1892      1806.3503      1744.7809     -245.31149      61166.794      39.400818      1.212294     
      9400   297.44894      6882.7271     -2748.0279      1608.4163      1714.8906     -698.23854      61166.794      39.400818      1.212294     
      9500   303.03977      6772.2943     -2769.9679      1550.7467      1715.9588      482.78617      61166.794      39.400818      1.212294     
      9600   302.37988      6899.1313     -2775.7744      1626.1547      1720.3046     -15.721186      61166.794      39.400818      1.212294     
      9700   303.0328       7117.1399     -2819.6831      1959.4087      1733.5475     -1357.0342      61166.794      39.400818      1.212294     
      9800   289.63133      7139.7019     -2780.5343      1880.5813      1715.4366     -1148.168       61166.794      39.400818      1.212294     
      9900   300.87137      7098.5672     -2755.9142      1983.6679      1710.738      -94.199698      61166.794      39.400818      1.212294     
     10000   299.76         7306.7705     -2785.8995      2089.397       1718.2413     -31.623038      61166.794      39.400818      1.212294     
     10100   305.20668      6745.6982     -2764.1647      1545.0197      1696.9863      254.34796      61166.794      39.400818      1.212294     
     10200   303.06528      7392.6923     -2806.3406      2175.9959      1709.6892      876.89612      61166.794      39.400818      1.212294     
     10300   295.24859      6871.5305     -2781.7192      1670.0379      1714.6552     -159.27655      61166.794      39.400818      1.212294     
     10400   292.24915      6842.9009     -2844.5787      1598.068       1720.6658     -1005.9299      61166.794      39.400818      1.212294     
     10500   299.66531      7142.7388     -2821.2552      2003.0049      1660.4838     -851.58884      61166.794      39.400818      1.212294     
     10600   299.97052      6354.6067     -2801.1062      1163.4455      1666.2695     -1277.702       61166.794      39.400818      1.212294     
     10700   297.3841       7034.8254     -2798.807       1777.9256      1677.4478      473.48326      61166.794      39.400818      1.212294     
     10800   298.26856      7316.4818     -2770.6542      2054.9213      1676.1442      450.58639      61166.794      39.400818      1.212294     
     10900   299.63668      7114.8334     -2794.1278      1940.3007      1678.5416      564.08574      61166.794      39.400818      1.212294     
     11000   299.40024      7219.2914     -2818.4372      2009.0883      1684.3176     -1022.8926      61166.794      39.400818      1.212294     
     11100   301.60906      7024.0726     -2771.9632      1790.5546      1662.6364      206.83698      61166.794      39.400818      1.212294     
     11200   297.21916      7215.746      -2777.1248      1913.2661      1671.6468     -263.9896       61166.794      39.400818      1.212294     
     11300   297.97663      7226.1256     -2822.7585      2037.3515      1642.8931     -2016.7072      61166.794      39.400818      1.212294     
     11400   299.57979      6483.7676     -2789.5731      1318.1993      1672.7189      144.82099      61166.794      39.400818      1.212294     
     11500   302.07048      6950.9676     -2788.435       1697.8805      1663.6942     -476.84171      61166.794      39.400818      1.212294     
     11600   303.2499       7081.3325     -2775.7655      1783.9487      1695.7515     -879.83444      61166.794      39.400818      1.212294     
     11700   305.32093      7447.7722     -2815.5019      2174.4001      1680.9935     -64.010082      61166.794      39.400818      1.212294     
     11800   303.7751       7494.6698     -2785.8164      2339.43        1689.1868     -1291.7393      61166.794      39.400818      1.212294     
     11900   295.96709      7154.4382     -2764.616       1923.3042      1668.6502     -345.04775      61166.794      39.400818      1.212294     
     12000   301.57109      6833.5969     -2863.353       1657.7299      1678.6629     -1066.7533      61166.794      39.400818      1.212294     
     12100   301.94417      7432.1386     -2780.6311      2224.2928      1700.401      -986.27326      61166.794      39.400818      1.212294     
     12200   301.54828      7352.6216     -2846.5295      2035.2032      1697.3964     -1978.6063      61166.794      39.400818      1.212294     
     12300   307.90236      7076.5924     -2846.4172      1804.1851      1682.4656     -12.94792       61166.794      39.400818      1.212294     
     12400   309.31249      6892.1771     -2795.6659      1594.5228      1690.6621     -645.64943      61166.794      39.400818      1.212294     
     12500   298.96615      6783.1102     -2801.187       1472.8237      1701.888      -1124.1291      61166.794      39.400818      1.212294     
     12600   301.3358       6509.3457     -2853.3351      1270.9815      1711.8796     -781.20574      61166.794      39.400818      1.212294     
     12700   301.45624      6538.8104     -2842.5936      1349.8039      1655.2533     -1386.0122      61166.794      39.400818      1.212294     
     12800   295.25472      7202.4621     -2787.9713      1976.4872      1665.5981      1065.4576      61166.794      39.400818      1.212294     
     12900   298.39753      7107.3344     -2806.2453      1834.046       1680.4714     -127.4534       61166.794      39.400818      1.212294     
     13000   302.47652      7598.0694     -2802.6708      2302.0371      1631.3357      927.70418      61166.794      39.400818      1.212294     
     13100   306.73944      6809.6378     -2709.0155      1577.2287      1622.3682      228.10207      61166.794      39.400818      1.212294     
     13200   298.20616      7071.1156     -2748.649       1767.4611      1650.8416      850.07666      61166.794      39.400818      1.212294     
     13300   299.81551      7086.7132     -2809.8323      1853.4177      1642.4221     -402.40985      61166.794      39.400818      1.212294     
     13400   299.97526      7096.6837     -2830.0013      1910.4738      1662.831       725.14254      61166.794      39.400818      1.212294     
     13500   300.71372      6881.9852     -2790.1357      1609.0964      1659.0971     -349.35054      61166.794      39.400818      1.212294     
     13600   306.29279      6887.1182     -2902.5164      1662.4699      1626.2722     -1903.0952      61166.794      39.400818      1.212294     
     13700   299.34352      7056.8341     -2839.1673      1765.0565      1665.1128     -957.15383      61166.794      39.400818      1.212294     
     13800   304.418        7175.0221     -2791.1293      2011.1569      1665.0555     -1864.3548      61166.794      39.400818      1.212294     
     13900   297.79433      6854.125      -2838.4838      1645.0769      1655.7559     -367.34878      61166.794      39.400818      1.212294     
     14000   300.49634      6562.6864     -2800.9536      1373.8272      1637.1952     -417.691        61166.794      39.400818      1.212294     
     14100   299.80155      7460.2807     -2804.1809      2247.7129      1686.4191     -824.35713      61166.794      39.400818      1.212294     
     14200   297.64974      6752.5857     -2845.7947      1523.7175      1689.1053     -276.92549      61166.794      39.400818      1.212294     
     14300   301.62135      6884.9487     -2823.887       1721.6961      1683.7717      342.0803       61166.794      39.400818      1.212294     
     14400   299.71966      7141.3675     -2794.4017      1895.2574      1704.4679     -261.29279      61166.794      39.400818      1.212294     
     14500   299.32352      7077.9099     -2783.4041      1827.8688      1650.7371      754.6644       61166.794      39.400818      1.212294     
     14600   301.96482      6900.8595     -2801.2556      1660.3018      1639.8982      933.79002      61166.794      39.400818      1.212294     
     14700   301.81913      7035.9611     -2836.3344      1789.4128      1670.3843     -64.356626      61166.794      39.400818      1.212294     
     14800   296.76008      6417.8373     -2880.1792      1132.4303      1693.3694     -530.80185      61166.794      39.400818      1.212294     
     14900   294.99194      6985.2469     -2829.8753      1780.3696      1660.519       403.2511       61166.794      39.400818      1.212294     
     15000   297.15623      6861.3236     -2864.1882      1661.325       1652.6794      77.75261       61166.794      39.400818      1.212294     
     15100   299.76653      7038.8562     -2835.0602      1795.8543      1652.6258     -460.69839      61166.794      39.400818      1.212294     
     15200   298.1806       6454.6825     -2832.831       1163.9862      1658.5764     -1941.8096      61166.794      39.400818      1.212294     
     15300   298.15671      7256.0981     -2850.8144      2001.6943      1645.3811     -62.079217      61166.794      39.400818      1.212294     
     15400   298.10987      6999.9535     -2851.434       1769.5668      1665.7878     -303.3565       61166.794      39.400818      1.212294     
     15500   296.69811      7397.2176     -2811.209       2194.0087      1666.4536     -591.45386      61166.794      39.400818      1.212294     
     15600   293.62231      7201.6898     -2795.315       2030.5257      1664.5752     -1534.0443      61166.794      39.400818      1.212294     
     15700   299.22562      7036.625      -2886.3932      1977.8823      1664.8744     -1521.3141      61166.794      39.400818      1.212294     
     15800   301.1691       7336.8519     -2836.0774      2155.9972      1695.257      -1354.7236      61166.794      39.400818      1.212294     
     15900   301.5745       7278.6523     -2829.7101      2043.4829      1709.0604      1016.9897      61166.794      39.400818      1.212294     
     16000   303.86517      7053.3033     -2838.1744      1882.2836      1694.6129      410.24257      61166.794      39.400818      1.212294     
     16100   301.44698      6949.2406     -2871.6905      1813.5584      1645.2613     -630.24644      61166.794      39.400818      1.212294     
     16200   298.86592      7095.1672     -2877.1357      1990.9174      1623.7691     -462.99382      61166.794      39.400818      1.212294     
     16300   301.38543      6972.8992     -2886.7206      1867.4738      1678.9639      125.06881      61166.794      39.400818      1.212294     
     16400   302.81618      6994.7133     -2846.6685      1746.5733      1663.9974     -2277.1657      61166.794      39.400818      1.212294     
     16500   300.80385      7131.7374     -2893.7522      1857.6908      1660.4753     -314.26668      61166.794      39.400818      1.212294     
     16600   298.52561      7896.751      -2792.3201      2688.8164      1660.2379     -6.0804414      61166.794      39.400818      1.212294     
     16700   297.70016      6813.852      -2845.4765      1577.2194      1659.6565     -1355.9549      61166.794      39.400818      1.212294     
     16800   302.09209      6876.1743     -2841.9821      1775.09        1671.3124     -1076.3572      61166.794      39.400818      1.212294     
     16900   303.93048      6793.2682     -2809.5468      1541.2433      1650.2916     -86.214935      61166.794      39.400818      1.212294     
     17000   303.35531      6768.3529     -2831.9523      1498.0506      1672.1324     -986.46318      61166.794      39.400818      1.212294     
     17100   303.72876      6925.4858     -2834.8576      1689.1574      1668.3822     -516.54883      61166.794      39.400818      1.212294     
     17200   302.51532      6533.5797     -2798.4181      1301.1478      1665.7219     -1393.0998      61166.794      39.400818      1.212294     
     17300   298.94351      6570.2405     -2855.0538      1394.1414      1651.0729     -1245.3343      61166.794      39.400818      1.212294     
     17400   297.99788      6779.2171     -2865.4928      1583.3824      1656.62       -1066.1629      61166.794      39.400818      1.212294     
     17500   296.07174      6606.7726     -2841.9113      1362.537       1673.5866     -1536.4096      61166.794      39.400818      1.212294     
     17600   298.36722      6620.2429     -2854.3517      1279.3692      1670.5944     -1351.87        61166.794      39.400818      1.212294     
     17700   307.20567      7103.9017     -2811.7368      1747.5876      1664.2419      536.26874      61166.794      39.400818      1.212294     
     17800   305.38026      7505.7023     -2835.8406      2249.799       1652.5614     -542.42167      61166.794      39.400818      1.212294     
     17900   299.32016      7268.5286     -2818.1127      1975.2923      1630.6762     -138.74049      61166.794      39.400818      1.212294     
     18000   304.94391      6724.1178     -2794.8189      1608.2993      1655.4143      724.85711      61166.794      39.400818      1.212294     
     18100   296.0133       6167.9894     -2816.5934      875.89477      1687.5454      27.367202      61166.794      39.400818      1.212294     
     18200   299.82823      6267.4308     -2837.2812      1056.1409      1660.5585      701.93904      61166.794      39.400818      1.212294     
     18300   299.21492      6665.9754     -2828.5783      1375.9948      1654.027      -257.8838       61166.794      39.400818      1.212294     
     18400   301.8461       6680.7664     -2791.0349      1329.1657      1660.7491      275.0835       61166.794      39.400818      1.212294     
     18500   303.49386      7015.3245     -2855.1825      1749.9977      1658.0618     -63.550174      61166.794      39.400818      1.212294     
     18600   303.28828      6293.2384     -2792.6169      1141.831       1658.0714      1251.334       61166.794      39.400818      1.212294     
     18700   295.8923       6418.562      -2818.0895      1118.5589      1675.6711     -1120.2688      61166.794      39.400818      1.212294     
     18800   298.11614      6789.9455     -2788.0719      1525.2518      1642.8687     -428.28674      61166.794      39.400818      1.212294     
     18900   301.11703      6595.9399     -2830.5203      1380.5023      1646.0643     -164.86652      61166.794      39.400818      1.212294     
     19000   302.63841      6752.5899     -2774.9887      1409.6798      1668.4243     -607.87519      61166.794      39.400818      1.212294     
     19100   305.35196      6911.7406     -2781.5773      1526.1348      1651.5631      213.60151      61166.794      39.400818      1.212294     
     19200   301.37362      7053.3268     -2796.0449      1739.0489      1659.4971     -332.95233      61166.794      39.400818      1.212294     
     19300   295.99391      6962.3497     -2767.0552      1697.7118      1664.2552     -772.15047      61166.794      39.400818      1.212294     
     19400   300.86888      6735.7105     -2789.0665      1517.672       1668.3089     -943.60577      61166.794      39.400818      1.212294     
     19500   300.21501      6901.807      -2816.075       1582.9327      1659.2676     -1277.3216      61166.794      39.400818      1.212294     
     19600   303.55056      7020.0689     -2793.0978      1676.0863      1654.9077     -1036.9916      61166.794      39.400818      1.212294     
     19700   301.98399      7301.6176     -2830.5982      2030.1961      1683.6997     -294.93651      61166.794      39.400818      1.212294     
     19800   297.84046      7244.4272     -2780.7167      2015.3082      1640.317       484.95872      61166.794      39.400818      1.212294     
     19900   294.55978      6581.7818     -2827.229       1275.8052      1679.8949     -1042.3728      61166.794      39.400818      1.212294     
     20000   299.93425      6725.9766     -2845.5377      1450.5699      1691.5943     -433.35263      61166.794      39.400818      1.212294     
     20100   300.9021       6710.6417     -2783.0407      1436.031       1693.1771     -759.14156      61166.794      39.400818      1.212294     
     20200   304.46741      7214.7247     -2743.2414      1922.1383      1678.7551      500.30306      61166.794      39.400818      1.212294     
     20300   304.84248      7117.1009     -2831.596       1820.1632      1633.9137     -380.49278      61166.794      39.400818      1.212294     
     20400   299.29901      7076.364      -2848.8102      1756.8813      1666.3583     -883.92014      61166.794      39.400818      1.212294     
     20500   298.07238      6673.866      -2843.0344      1475.5046      1662.7077     -978.30926      61166.794      39.400818      1.212294     
     20600   296.43161      6575.1369     -2816.1203      1394.2739      1646.3603      317.27991      61166.794      39.400818      1.212294     
     20700   299.51318      6555.8388     -2842.3018      1263.285       1647.3956     -1478.9627      61166.794      39.400818      1.212294     
     20800   302.47376      6711.6336     -2756.4443      1422.2551      1645.4403      109.14062      61166.794      39.400818      1.212294     
     20900   299.26397      6575.7843     -2777.1798      1224.6835      1637.1015      562.86004      61166.794      39.400818      1.212294     
     21000   294.39198      6716.7333     -2791.1016      1455.9231      1644.7503     -153.44073      61166.794      39.400818      1.212294     
     21100   297.24509      6605.0452     -2753.6412      1362.125       1633.8544     -385.01212      61166.794      39.400818      1.212294     
     21200   298.13343      6740.2384     -2818.2413      1467.3415      1633.8261     -686.18825      61166.794      39.400818      1.212294     
     21300   296.88493      6880.1827     -2788.4296      1662.9087      1626.2751      384.70542      61166.794      39.400818      1.212294     
     21400   306.21276      6167.6483     -2801.6677      919.00539      1641.1676      30.567137      61166.794      39.400818      1.212294     
     21500   300.50115      6225.9192     -2760.0965      832.57544      1676.4077     -409.24406      61166.794      39.400818      1.212294     
     21600   301.633        6775.6016     -2763.3901      1563.3256      1685.8995     -185.28684      61166.794      39.400818      1.212294     
     21700   298.13129      6521.625      -2805.0638      1323.1698      1659.3752      1091.4463      61166.794      39.400818      1.212294     
     21800   296.60271      6362.5789     -2843.8159      1121.5306      1639.5123     -359.72213      61166.794      39.400818      1.212294     
     21900   301.11523      6713.0081     -2808.69        1501.0126      1639.5828     -0.55585805     61166.794      39.400818      1.212294     
     22000   303.24653      6428.7439     -2799.4304      1211.6314      1668.2056     -162.53781      61166.794      39.400818      1.212294     
     22100   299.22188      7237.689      -2742.4599      1907.5863      1682.914       1257.4178      61166.794      39.400818      1.212294     
     22200   301.53907      6935.3907     -2788.4659      1779.6163      1661.5118     -138.84794      61166.794      39.400818      1.212294     
     22300   297.82896      7325.0238     -2835.8156      2173.3319      1639.7561      1964.0305      61166.794      39.400818      1.212294     
     22400   297.21434      6252.5975     -2846.5833      1100.9143      1637.7979     -1072.3185      61166.794      39.400818      1.212294     
     22500   294.58096      6974.7935     -2777.2602      1729.435       1621.2898      899.21388      61166.794      39.400818      1.212294     
     22600   303.21268      7108.3908     -2749.2767      1833.306       1657.8763      103.12249      61166.794      39.400818      1.212294     
     22700   303.89598      6968.7714     -2791.4         1713.101       1677.9807      826.82076      61166.794      39.400818      1.212294     
     22800   303.08561      7202.0817     -2815.3955      1986.2819      1665.7409     -1638.6157      61166.794      39.400818      1.212294     
     22900   300.56429      6773.3876     -2762.4005      1562.7961      1637.349      -926.41815      61166.794      39.400818      1.212294     
     23000   297.54852      7277.443      -2798.4618      2040.6008      1634.7456      854.26973      61166.794      39.400818      1.212294     
     23100   299.82609      6785.3215     -2809.7746      1572.6966      1616.1404     -1382.1809      61166.794      39.400818      1.212294     
     23200   299.91659      6834.798      -2831.3692      1600.7912      1654.9422     -1465.0515      61166.794      39.400818      1.212294     
     23300   302.90872      6620.2734     -2842.3495      1373.4037      1661.3731     -555.13494      61166.794      39.400818      1.212294     
     23400   302.48706      7547.0657     -2785.3037      2279.0782      1685.1232      143.20641      61166.794      39.400818      1.212294     
     23500   301.54755      6820.8927     -2795.9546      1595.9111      1643.1211     -468.88381      61166.794      39.400818      1.212294     
     23600   297.28476      6832.5626     -2872.4327      1636.3535      1643.7218     -353.11791      61166.794      39.400818      1.212294     
     23700   298.81924      7532.5886     -2813.0146      2338.671       1643.766       1501.1307      61166.794      39.400818      1.212294     
     23800   300.52518      7062.5364     -2776.0074      1735.6911      1674.9983      1676.9917      61166.794      39.400818      1.212294     
     23900   304.64208      6746.4614     -2787.5112      1389.6771      1667.7301     -520.7886       61166.794      39.400818      1.212294     
     24000   302.23331      7092.0336     -2818.3946      1841.3627      1703.6388      185.23259      61166.794      39.400818      1.212294     
     24100   299.61745      6925.3541     -2819.3107      1659.4444      1679.3591     -973.49523      61166.794      39.400818      1.212294     
     24200   301.26067      6467.7365     -2830.5615      1258.1561      1678.307       369.0793       61166.794      39.400818      1.212294     
     24300   302.74689      5864.4387     -2830.7694      710.85204      1642.757      -2018.3322      61166.794      39.400818      1.212294     
     24400   297.33915      6206.4766     -2788.536       1031.1713      1669.3124     -905.43163      61166.794      39.400818      1.212294     
     24500   295.13243      6434.3641     -2790.8103      1219.3202      1670.2961      98.938451      61166.794      39.400818      1.212294     
     24600   301.80418      6446.8406     -2849.8556      1350.0693      1651.1966     -404.54471      61166.794      39.400818      1.212294     
     24700   304.48128      6597.0884     -2861.7419      1397.411       1681.1962     -1427.2048      61166.794      39.400818      1.212294     
     24800   299.93678      6349.8682     -2834.3913      1152.3884      1693.5483     -2015.0544      61166.794      39.400818      1.212294     
     24900   300.44601      6565.8289     -2810.3366      1369.5122      1658.8248      108.68946      61166.794      39.400818      1.212294     
     25000   294.42439      6719.2696     -2820.5369      1523.0489      1649.6383     -796.80815      61166.794      39.400818      1.212294     
     25100   295.20776      6596.4348     -2778.6472      1429.2665      1643.1858      1019.4718      61166.794      39.400818      1.212294     
     25200   301.36262      6850.6157     -2865.8076      1639.512       1664.7755      154.78093      61166.794      39.400818      1.212294     
     25300   303.17907      6969.6744     -2821.9864      1723.6394      1692.7729      340.30218      61166.794      39.400818      1.212294     
     25400   300.70222      7163.7231     -2865.1031      1917.2858      1682.442      -418.3786       61166.794      39.400818      1.212294     
     25500   293.79647      6901.872      -2839.6311      1620.5469      1676.1007      1195.945       61166.794      39.400818      1.212294     
     25600   299.5255       7150.8175     -2849.2501      2052.3316      1658.0124     -2002.0192      61166.794      39.400818      1.212294     
     25700   301.99156      7129.212      -2799.393       1898.9299      1628.7732     -487.25416      61166.794      39.400818      1.212294     
     25800   305.21334      7078.5585     -2818.9381      1829.3668      1633.7679     -1163.1745      61166.794      39.400818      1.212294     
     25900   304.75083      6977.4103     -2799.4491      1707.9372      1634.9991     -594.83859      61166.794      39.400818      1.212294     
     26000   296.02584      7109.5673     -2813.1451      1824.9131      1640.8677      17.408232      61166.794      39.400818      1.212294     
     26100   298.46045      6739.2686     -2829.5432      1595.6051      1626.6364     -623.08025      61166.794      39.400818      1.212294     
     26200   299.60849      7036.785      -2839.7819      1907.3551      1651.6757      375.1799       61166.794      39.400818      1.212294     
     26300   302.66309      6529.7135     -2818.2197      1275.6968      1660.6585      445.42131      61166.794      39.400818      1.212294     
     26400   305.71597      6786.479      -2807.6076      1567.2593      1683.1111      157.70368      61166.794      39.400818      1.212294     
     26500   301.16177      6731.3756     -2828.27        1450.5332      1646.7892     -465.69051      61166.794      39.400818      1.212294     
     26600   301.92495      7169.7529     -2829.563       1957.0731      1639.6002     -1112.7921      61166.794      39.400818      1.212294     
     26700   298.90952      7322.1379     -2816.3779      2139.253       1641.4727      184.44302      61166.794      39.400818      1.212294     
     26800   299.37163      6726.8609     -2819.2198      1522.205       1651.2908     -24.444431      61166.794      39.400818      1.212294     
     26900   299.01038      6946.1011     -2804.1084      1779.2453      1627.9453     -575.9518       61166.794      39.400818      1.212294     
     27000   296.25925      6744.8895     -2834.5764      1514.2744      1668.4333     -1017.0392      61166.794      39.400818      1.212294     
     27100   298.28945      7127.2971     -2859.6236      1879.1688      1643.0011      9.9412874      61166.794      39.400818      1.212294     
     27200   301.2422       6743.3215     -2813.697       1498.1127      1678.808       649.21008      61166.794      39.400818      1.212294     
     27300   300.45383      7323.6334     -2791.7655      1982.5484      1653.2141     -178.45891      61166.794      39.400818      1.212294     
     27400   292.78204      7056.2025     -2821.7083      1630.8414      1673.2876     -2046.7721      61166.794      39.400818      1.212294     
     27500   293.39703      7440.5092     -2857.4547      2172.135       1656.8435      330.59594      61166.794      39.400818      1.212294     
     27600   298.86876      7121.298      -2837.6917      1977.7805      1642.1419      381.71396      61166.794      39.400818      1.212294     
     27700   301.20884      6870.5995     -2843.8113      1695.2389      1634.7671     -719.91733      61166.794      39.400818      1.212294     
     27800   301.1696       6884.6208     -2823.0693      1657.5285      1654.8197     -25.825238      61166.794      39.400818      1.212294     
     27900   302.19139      6653.9857     -2856.6842      1411.83        1632.7984     -390.62326      61166.794      39.400818      1.212294     
     28000   303.43792      6667.3479     -2864.5395      1502.8641      1662.3648     -1134.5266      61166.794      39.400818      1.212294     
     28100   302.49949      6154.0303     -2818.4125      1037.8858      1627.5462     -1438.999       61166.794      39.400818      1.212294     
     28200   298.52112      7015.9296     -2853.4812      1857.2693      1631.1038      1622.9245      61166.794      39.400818      1.212294     
     28300   297.43636      7228.1961     -2899.1997      2038.8697      1658.7248     -248.55678      61166.794      39.400818      1.212294     
     28400   301.83707      7022.3294     -2813.2527      1773.4409      1638.8633     -304.91651      61166.794      39.400818      1.212294     
     28500   304.7334       7212.9004     -2865.7411      1986.3479      1635.4384      297.99293      61166.794      39.400818      1.212294     
     28600   301.74803      6914.0834     -2777.9066      1650.0315      1641.4325     -515.8322       61166.794      39.400818      1.212294     
     28700   300.1274       7201.211      -2767.862       2056.8969      1618.1491      972.49648      61166.794      39.400818      1.212294     
     28800   298.86117      6786.7456     -2851.5227      1605.5067      1648.7684     -989.51859      61166.794      39.400818      1.212294     
     28900   295.72323      6957.1824     -2796.2092      1666.1932      1629.3914     -762.84589      61166.794      39.400818      1.212294     
     29000   302.25388      7216.7343     -2866.5469      2003.8701      1647.3124      1009.0546      61166.794      39.400818      1.212294     
     29100   298.01277      6774.3597     -2850.568       1508.3579      1665.7133     -602.27571      61166.794      39.400818      1.212294     
     29200   299.18737      6825.6112     -2848.1267      1605.9983      1645.8904      1053.3518      61166.794      39.400818      1.212294     
     29300   307.96743      6651.6872     -2795.646       1452.6353      1648.0626      420.41336      61166.794      39.400818      1.212294     
     29400   305.22949      6466.3435     -2864.2424      1181.6292      1670.4061     -481.961        61166.794      39.400818      1.212294     
     29500   302.56206      6454.8346     -2811.6622      1262.7613      1638.6029      119.868        61166.794      39.400818      1.212294     
     29600   295.78628      7179.7952     -2810.9111      1927.6342      1642.4664      116.15855      61166.794      39.400818      1.212294     
     29700   305.40277      6782.501      -2866.5097      1725.3326      1641.569      -1173.9465      61166.794      39.400818      1.212294     
     29800   305.9396       7281.8626     -2888.7184      2157.9421      1634.9776      507.90619      61166.794      39.400818      1.212294     
     29900   303.0418       6678.0382     -2816.8719      1411.8797      1614.4962     -415.15834      61166.794      39.400818      1.212294     
     30000   310.04768      7126.1797     -2847.0379      1868.9563      1667.6387      244.2236       61166.794      39.400818      1.212294     
     30100   303.78665      6736.2        -2812.7029      1475.9007      1655.1115     -690.66875      61166.794      39.400818      1.212294     
     30200   299.17616      6816.3432     -2845.7653      1656.122       1656.7378      340.39323      61166.794      39.400818      1.212294     
     30300   299.92776      6982.5986     -2836.9311      1839.5163      1595.2632      2037.1584      61166.794      39.400818      1.212294     
     30400   298.39585      6665.685      -2832.2648      1504.288       1642.6312     -428.35386      61166.794      39.400818      1.212294     
     30500   302.93113      6788.9192     -2797.2953      1541.8671      1632.7639     -873.50259      61166.794      39.400818      1.212294     
     30600   305.46346      6649.6644     -2835.3269      1436.5671      1657.2701      92.200994      61166.794      39.400818      1.212294     
     30700   306.34753      6692.9336     -2808.1213      1522.5255      1665.0091     -418.97981      61166.794      39.400818      1.212294     
     30800   296.15973      6983.4579     -2884.7854      1781.1275      1686.8138     -759.79194      61166.794      39.400818      1.212294     
     30900   301.52216      6631.2306     -2853.7462      1583.3116      1645.9737     -1191.4031      61166.794      39.400818      1.212294     
     31000   297.70256      6802.3975     -2806.1507      1514.9129      1658.0534      248.95774      61166.794      39.400818      1.212294     
     31100   299.00516      7707.3835     -2805.2426      2434.1914      1619.8569      283.62168      61166.794      39.400818      1.212294     
     31200   299.57201      7008.236      -2818.3472      1744.1419      1640.413       820.99585      61166.794      39.400818      1.212294     
     31300   297.91205      7471.4228     -2852.3065      2223.027       1650.9925      290.6624       61166.794      39.400818      1.212294     
     31400   295.17629      7045.7891     -2868.6448      1923.765       1624.9749     -595.40266      61166.794      39.400818      1.212294     
     31500   295.06173      6798.918      -2868.6343      1737.6798      1644.1288     -314.40038      61166.794      39.400818      1.212294     
     31600   299.66666      6917.4854     -2845.1798      1780.8529      1623.5112     -1920.2517      61166.794      39.400818      1.212294     
     31700   298.69537      7213.1232     -2814.7852      2004.6815      1624.5869     -421.39422      61166.794      39.400818      1.212294     
     31800   301.3168       7410.9472     -2873.67        2225.4198      1616.9696     -467.44911      61166.794      39.400818      1.212294     
     31900   299.8906       7700.6443     -2829.3267      2456.9085      1649.8371      61.723845      61166.794      39.400818      1.212294     
     32000   295.98525      6994.3711     -2812.4379      1765.7378      1654.461      -1181.9086      61166.794      39.400818      1.212294     
     32100   297.5976       6757.1709     -2809.5736      1601.7674      1623.7179     -1041.0964      61166.794      39.400818      1.212294     
     32200   296.84203      6732.9516     -2812.3122      1500.8884      1639.1034     -910.42866      61166.794      39.400818      1.212294     
     32300   302.73698      6727.6506     -2855.3746      1532.4779      1655.3389     -877.93377      61166.794      39.400818      1.212294     
     32400   303.03901      7089.6611     -2887.421       1930.8976      1622.031      -1673.0438      61166.794      39.400818      1.212294     
     32500   296.42658      6697.377      -2841.8218      1367.8978      1635.0889     -1227.9977      61166.794      39.400818      1.212294     
     32600   298.18127      6674.3646     -2844.9716      1441.7873      1651.2122     -765.85177      61166.794      39.400818      1.212294     
     32700   299.89929      7201.238      -2836.6067      2045.7635      1648.2925     -859.8877       61166.794      39.400818      1.212294     
     32800   301.61684      7386.9939     -2808.6214      2246.3873      1616.5091      177.2522       61166.794      39.400818      1.212294     
     32900   306.08925      6875.0809     -2832.2314      1678.5         1620.426      -862.77667      61166.794      39.400818      1.212294     
     33000   296.95262      6846.462      -2815.9925      1455.8406      1640.9607     -2808.0913      61166.794      39.400818      1.212294     
     33100   298.06394      7083.9131     -2853.0182      1933.2547      1634.3328      505.57134      61166.794      39.400818      1.212294     
     33200   295.39456      7110.4031     -2839.0154      1879.828       1634.5702     -2109.5798      61166.794      39.400818      1.212294     
     33300   299.04528      7178.2753     -2802.7315      1998.8761      1639.6939      838.51708      61166.794      39.400818      1.212294     
     33400   302.69136      7480.4115     -2817.0594      2314.2832      1660.0326     -765.68192      61166.794      39.400818      1.212294     
     33500   302.62791      7304.9778     -2846.4484      2059.2873      1663.4031     -229.32684      61166.794      39.400818      1.212294     
     33600   298.17138      6458.4622     -2805.8856      1215.6891      1658.3945     -567.25009      61166.794      39.400818      1.212294     
     33700   295.36529      6609.0521     -2826.1691      1465.5974      1622.8612     -1765.8723      61166.794      39.400818      1.212294     
     33800   303.16986      6887.5714     -2841.4165      1811.646       1660.9732     -806.28427      61166.794      39.400818      1.212294     
     33900   297.71706      7230.0943     -2844.5768      1960.0051      1648.3452     -230.42305      61166.794      39.400818      1.212294     
     34000   303.88381      6993.9451     -2834.164       1794.3148      1644.1213     -296.3303       61166.794      39.400818      1.212294     
     34100   300.47718      7181.6529     -2845.6103      1942.5429      1658.8221     -88.994851      61166.794      39.400818      1.212294     
     34200   297.47707      7107.5902     -2833.6229      1865.9662      1644.8295     -161.46651      61166.794      39.400818      1.212294     
     34300   295.1927       6914.8419     -2856.455       1815.9218      1622.6478     -1985.6202      61166.794      39.400818      1.212294     
     34400   296.09213      7249.6338     -2822.9789      2116.3558      1614.8677     -463.26563      61166.794      39.400818      1.212294     
     34500   296.32534      6874.4336     -2836.4008      1564.5523      1662.0669     -1044.2136      61166.794      39.400818      1.212294     
     34600   295.59702      6651.4978     -2768.2279      1329.9198      1664.7271     -700.0087       61166.794      39.400818      1.212294     
     34700   302.35372      7145.417      -2835.2002      1975.1616      1677.6622      1265.3684      61166.794      39.400818      1.212294     
     34800   306.50716      6876.7143     -2798.3474      1748.2343      1655.8675     -703.38063      61166.794      39.400818      1.212294     
     34900   293.63495      7004.6003     -2878.832       1743.4088      1652.2342     -412.86973      61166.794      39.400818      1.212294     
     35000   295.1968       6592.9693     -2832.0269      1436.8971      1681.9954      310.54913      61166.794      39.400818      1.212294     
     35100   301.82901      6693.0867     -2887.1728      1590.3072      1621.8842     -286.44231      61166.794      39.400818      1.212294     
     35200   300.62524      6851.3918     -2795.1351      1588.6316      1611.9231     -306.03693      61166.794      39.400818      1.212294     
     35300   305.04295      6932.5961     -2839.0981      1779.4431      1621.3039     -535.12134      61166.794      39.400818      1.212294     
     35400   306.35741      6180.8466     -2827.8496      1064.8087      1621.542       233.91577      61166.794      39.400818      1.212294     
     35500   300.41972      6468.7752     -2847.6424      1413.9848      1600.0825     -537.522        61166.794      39.400818      1.212294     
     35600   296.76579      6738.0041     -2868.8242      1621.5775      1618.8083     -1065.8049      61166.794      39.400818      1.212294     
     35700   293.89438      6576.3833     -2836.224       1304.3713      1632.4534      290.27792      61166.794      39.400818      1.212294     
     35800   304.48049      6171.6209     -2852.7362      952.65568      1663.1232     -1300.1102      61166.794      39.400818      1.212294     
     35900   302.38807      6623.6146     -2822.8403      1412.3474      1651.8552     -763.01742      61166.794      39.400818      1.212294     
     36000   306.25449      6399.6618     -2817.4884      1181.8752      1630.9481      300.89736      61166.794      39.400818      1.212294     
     36100   296.1924       6999.4483     -2789.7173      1790.0849      1648.5089      381.05255      61166.794      39.400818      1.212294     
     36200   302.50699      7113.3474     -2836.2201      2020.6937      1653.0679     -291.99911      61166.794      39.400818      1.212294     
     36300   297.46973      6903.6039     -2810.6864      1683.4189      1633.0936     -1241.0124      61166.794      39.400818      1.212294     
     36400   301.41528      6878.6323     -2789.7302      1639.9466      1650.836       378.95788      61166.794      39.400818      1.212294     
     36500   298.79497      6581.6129     -2882.0928      1293.0495      1646.01       -419.78804      61166.794      39.400818      1.212294     
     36600   299.98754      6683.5296     -2887.0846      1440.9502      1673.0132     -1490.1959      61166.794      39.400818      1.212294     
     36700   301.17895      6884.0294     -2853.2559      1667.0181      1665.4781     -790.80089      61166.794      39.400818      1.212294     
     36800   305.30198      6372.8165     -2825.2089      1264.598       1645.0592      647.66887      61166.794      39.400818      1.212294     
     36900   301.29919      7005.1041     -2828.7018      1807.8881      1655.7915     -903.39865      61166.794      39.400818      1.212294     
     37000   296.79843      7042.3832     -2861.9289      1774.4492      1662.3691     -893.45294      61166.794      39.400818      1.212294     
     37100   298.99613      6657.75       -2797.8939      1423.0892      1632.5073      28.535857      61166.794      39.400818      1.212294     
     37200   301.93452      6986.5046     -2783.4609      1695.8692      1651.787       794.40886      61166.794      39.400818      1.212294     
     37300   301.59064      7103.7946     -2832.6006      1895.1247      1654.4552     -693.88002      61166.794      39.400818      1.212294     
     37400   297.8193       6875.3816     -2849.0602      1698.0341      1638.4731     -1733.4359      61166.794      39.400818      1.212294     
     37500   293.81675      6737.4569     -2798.0928      1548.8154      1627.0551     -272.05361      61166.794      39.400818      1.212294     
     37600   299.42099      7028.227      -2895.4434      1862.9699      1646.2989     -1809.7823      61166.794      39.400818      1.212294     
     37700   304.57158      6807.9861     -2769.0885      1553.32        1613.7975     -1177.425       61166.794      39.400818      1.212294     
     37800   298.85942      7190.8708     -2746.5727      1907.9173      1633.7877      319.86572      61166.794      39.400818      1.212294     
     37900   299.72269      6902.8246     -2830.067       1643.2271      1662.6273      28.170294      61166.794      39.400818      1.212294     
     38000   298.5896       6880.2914     -2879.397       1749.0825      1654.2425     -986.70206      61166.794      39.400818      1.212294     
     38100   295.89582      7063.7868     -2850.4908      1989.2575      1637.1178     -1325.0069      61166.794      39.400818      1.212294     
     38200   296.90121      6977.8294     -2800.3811      1811.0837      1634.606       127.88452      61166.794      39.400818      1.212294     
     38300   298.1667       6609.8219     -2833.9617      1421.6093      1650.2611      330.81541      61166.794      39.400818      1.212294     
     38400   300.796        7021.9526     -2807.3063      1802.9834      1643.3406     -1281.1646      61166.794      39.400818      1.212294     
     38500   301.1952       6905.4487     -2810.0781      1625.9513      1654.3852      525.06737      61166.794      39.400818      1.212294     
     38600   301.87168      6494.7959     -2857.9197      1333.6368      1622.4262     -658.26902      61166.794      39.400818      1.212294     
     38700   294.79297      6565.9209     -2787.7393      1304.8385      1656.636      -1011.5114      61166.794      39.400818      1.212294     
     38800   293.92406      6652.0475     -2883.7385      1470.5091      1610.8646     -1157.6699      61166.794      39.400818      1.212294     
     38900   297.06565      7186.8819     -2878.6784      1973.8469      1670.915      -1330.4288      61166.794      39.400818      1.212294     
     39000   301.99022      6625.2009     -2827.1132      1364.638       1659.1767     -579.43432      61166.794      39.400818      1.212294     
     39100   300.40113      6733.0263     -2769.0325      1407.0205      1647.7746      418.14143      61166.794      39.400818      1.212294     
     39200   296.0874       6737.8577     -2841.7115      1484.4786      1662.6226     -2293.0694      61166.794      39.400818      1.212294     
     39300   296.07762      6916.0934     -2814.4635      1682.8913      1628.5287     -948.09092      61166.794      39.400818      1.212294     
     39400   296.42496      7093.0377     -2765.4123      1868.4321      1656.5083      687.94907      61166.794      39.400818      1.212294     
     39500   296.56296      7251.5472     -2867.5391      2127.124       1663.6818     -1000.5693      61166.794      39.400818      1.212294     
     39600   298.52585      7541.0959     -2867.5654      2269.5645      1699.1251     -1353.3094      61166.794      39.400818      1.212294     
     39700   300.2321       6936.9729     -2836.5927      1643.4519      1689.2087     -54.722611      61166.794      39.400818      1.212294     
     39800   301.57999      7110.8043     -2822.2007      1848.8652      1636.08        745.37315      61166.794      39.400818      1.212294     
     39900   295.18002      7176.0055     -2822.221       1885.094       1652.7991     -682.6441       61166.794      39.400818      1.212294     
     40000   297.38521      6793.8966     -2838.4007      1624.6354      1664.2441     -1949.6049      61166.794      39.400818      1.212294     
     40100   297.12118      6927.0026     -2873.8366      1773.3615      1653.2818     -121.79917      61166.794      39.400818      1.212294     
     40200   293.63604      7721.4042     -2815.8723      2395.8448      1615.4203     -1230.2828      61166.794      39.400818      1.212294     
     40300   299.17398      6581.9645     -2833.2615      1333.2959      1621.4063     -525.27773      61166.794      39.400818      1.212294     
     40400   302.64612      6541.2535     -2844.1384      1375.6275      1648.7741     -1121.4219      61166.794      39.400818      1.212294     
     40500   296.68621      6837.7827     -2895.2167      1546.6769      1638.1729     -1995.228       61166.794      39.400818      1.212294     
     40600   304.0208       6679.269      -2849.5246      1441.5318      1626.4394     -1647.3348      61166.794      39.400818      1.212294     
     40700   303.86185      6556.1893     -2802.6896      1240.0466      1647.7851     -1232.1362      61166.794      39.400818      1.212294     
     40800   299.1029       6979.9842     -2824.1248      1609.6142      1632.7993     -1904.2562      61166.794      39.400818      1.212294     
     40900   301.3526       6530.7779     -2872.0135      1384.6348      1636.1311     -637.59351      61166.794      39.400818      1.212294     
     41000   298.82392      6511.3889     -2859.9274      1319.3292      1655.8442     -1537.6393      61166.794      39.400818      1.212294     
     41100   298.87094      6711.0588     -2876.1258      1481.7283      1659.807      -883.82315      61166.794      39.400818      1.212294     
     41200   301.54694      6891.1635     -2847.5376      1630.366       1628.7518     -245.24883      61166.794      39.400818      1.212294     
     41300   304.31254      6662.4551     -2853.8677      1393.1169      1643.6179     -715.3166       61166.794      39.400818      1.212294     
     41400   303.12024      6434.9527     -2835.7583      1194.8718      1622.6162     -433.67174      61166.794      39.400818      1.212294     
     41500   300.75647      6576.5134     -2837.1977      1406.3818      1650.813       1099.9881      61166.794      39.400818      1.212294     
     41600   300.8603       6546.1793     -2869.6933      1373.9709      1655.4282     -62.366213      61166.794      39.400818      1.212294     
     41700   299.85613      6835.4032     -2847.4539      1648.5871      1655.0796      891.49616      61166.794      39.400818      1.212294     
     41800   303.73725      6876.5603     -2835.1013      1700.4014      1644.071      -173.72277      61166.794      39.400818      1.212294     
     41900   302.52066      7464.7786     -2817.5008      2262.0753      1609.5827     -325.58694      61166.794      39.400818      1.212294     
     42000   299.6309       7122.1684     -2884.2906      1888.5227      1620.9182     -715.4634       61166.794      39.400818      1.212294     
     42100   297.02815      6887.5358     -2876.1639      1707.9902      1660.2236     -1338.3906      61166.794      39.400818      1.212294     
     42200   297.78652      6539.1285     -2827.5486      1431.5732      1612.2676      717.60716      61166.794      39.400818      1.212294     
     42300   297.72174      6103.5688     -2845.9128      942.62428      1638.4257     -520.70233      61166.794      39.400818      1.212294     
     42400   294.54242      7014.8944     -2845.0802      1710.7842      1676.6449     -2295.9834      61166.794      39.400818      1.212294     
     42500   300.29578      7187.6229     -2810.4844      1929.9356      1645.5227     -106.85885      61166.794      39.400818      1.212294     
     42600   301.42864      7156.5109     -2879.5791      1914.6272      1643.6275     -1090.524       61166.794      39.400818      1.212294     
     42700   298.325        6922.5104     -2833.0318      1688.5947      1665.5346     -410.41816      61166.794      39.400818      1.212294     
     42800   291.94693      6747.9434     -2849.7646      1467.9985      1624.9627     -1107.7867      61166.794      39.400818      1.212294     
     42900   300.73978      6576.7153     -2847.2049      1378.0919      1670.0863     -388.28967      61166.794      39.400818      1.212294     
     43000   300.75943      7155.9396     -2823.4125      1786.1447      1645.1261      342.83434      61166.794      39.400818      1.212294     
     43100   303.1433       7795.8229     -2823.7216      2550.7491      1640.3702     -721.96989      61166.794      39.400818      1.212294     
     43200   302.63031      7082.0768     -2883.6333      1971.8055      1641.8035      720.52968      61166.794      39.400818      1.212294     
     43300   299.33072      6984.4183     -2867.3983      1764.5761      1672.2262     -1205.9871      61166.794      39.400818      1.212294     
     43400   298.49926      6733.1118     -2866.186       1573.6217      1656.4876      25.611844      61166.794      39.400818      1.212294     
     43500   299.74102      7456.9676     -2783.6032      2224.2022      1631.4743      179.62187      61166.794      39.400818      1.212294     
     43600   301.0321       6585.7442     -2857.4088      1413.8379      1626.2404     -104.68479      61166.794      39.400818      1.212294     
     43700   304.34599      6484.7708     -2877.8083      1312.3667      1634.9448     -836.82292      61166.794      39.400818      1.212294     
     43800   294.83725      6911.8048     -2816.8445      1613.3781      1637.2088     -652.84979      61166.794      39.400818      1.212294     
     43900   300.02507      6807.2625     -2801.6836      1566.0647      1614.6838      56.942565      61166.794      39.400818      1.212294     
     44000   301.25916      6894.7671     -2866.5735      1626.5928      1662.2521     -1389.3969      61166.794      39.400818      1.212294     
     44100   302.16729      6837.1839     -2883.9968      1679.8079      1634.8998     -919.72194      61166.794      39.400818      1.212294     
     44200   291.85311      7012.0069     -2908.1783      1722.1549      1615.4727     -2068.0248      61166.794      39.400818      1.212294     
     44300   297.99246      6526.2476     -2872.9693      1448.7974      1635.3988     -635.89388      61166.794      39.400818      1.212294     
     44400   301.13428      7009.217      -2896.5968      1851.0551      1617.4506     -1706.0467      61166.794      39.400818      1.212294     
     44500   301.70757      6650.1266     -2851.597       1412.0586      1607.503      -2370.3374      61166.794      39.400818      1.212294     
     44600   303.0049       6750.2669     -2806.7102      1501.7874      1611.6776     -952.53576      61166.794      39.400818      1.212294     
     44700   302.31445      6690.4362     -2862.8282      1559.2367      1638.6389     -511.82339      61166.794      39.400818      1.212294     
     44800   296.0043       6556.1524     -2861.5536      1349.2497      1612.6674     -1543.6709      61166.794      39.400818      1.212294     
     44900   301.2946       6738.792      -2841.363       1580.7306      1597.6442     -1359.7878      61166.794      39.400818      1.212294     
     45000   299.92664      6666.6073     -2879.8575      1526.2281      1623.1698     -627.93511      61166.794      39.400818      1.212294     
     45100   296.53058      6684.3858     -2884.7615      1451.8034      1657.8447     -1257.6344      61166.794      39.400818      1.212294     
     45200   300.55149      6952.7838     -2847.2583      1781.5655      1639.7436     -175.776        61166.794      39.400818      1.212294     
     45300   300.8283       6761.0323     -2840.3454      1618.4838      1648.7039     -125.09942      61166.794      39.400818      1.212294     
     45400   304.03251      7505.1768     -2850.0245      2440.2734      1644.8559      928.48974      61166.794      39.400818      1.212294     
     45500   300.92966      7138.7482     -2899.6022      2009.7552      1617.646      -1893.5486      61166.794      39.400818      1.212294     
     45600   301.3516       6853.4104     -2840.3177      1629.4003      1638.5108     -97.908008      61166.794      39.400818      1.212294     
     45700   304.19911      7649.687      -2853.7316      2415.5837      1633.6101     -1688.7262      61166.794      39.400818      1.212294     
     45800   300.5464       7160.4029     -2885.2078      1961.9808      1602.3975     -1270.576       61166.794      39.400818      1.212294     
     45900   300.63051      6529.2278     -2862.89        1410.9369      1623.4236      163.0227       61166.794      39.400818      1.212294     
     46000   301.33639      6886.2112     -2821.5425      1757.9709      1643.6179      385.76219      61166.794      39.400818      1.212294     
     46100   298.65765      6629.4625     -2820.8211      1365.0824      1633.3647      171.63224      61166.794      39.400818      1.212294     
     46200   304.18084      6536.0014     -2818.5307      1367.9955      1632.0649      622.70746      61166.794      39.400818      1.212294     
     46300   302.58218      7221.5663     -2850.3154      1976.1596      1645.3002      697.18668      61166.794      39.400818      1.212294     
     46400   297.87455      6997.8517     -2835.755       1829.7059      1606.0103      73.811961      61166.794      39.400818      1.212294     
     46500   296.81664      6718.7736     -2843.8812      1562.1662      1647.4116      304.09802      61166.794      39.400818      1.212294     
     46600   296.40556      7236.7135     -2858.2611      1975.0503      1626.5472     -1058.9909      61166.794      39.400818      1.212294     
     46700   302.41015      7180.9033     -2876.4079      1914.4173      1623.8093     -657.10744      61166.794      39.400818      1.212294     
     46800   300.91265      6788.6106     -2830.6618      1534.2408      1628.9125     -1564.4956      61166.794      39.400818      1.212294     
     46900   298.09048      6613.9492     -2752.8745      1300.8429      1641.3175     -566.28523      61166.794      39.400818      1.212294     
     47000   296.7998       6422.1946     -2845.039       1279.356       1630.3109     -192.39158      61166.794      39.400818      1.212294     
     47100   292.49014      6720.7078     -2872.092       1605.0685      1608.7038     -787.51783      61166.794      39.400818      1.212294     
     47200   293.57682      6910.8973     -2840.834       1777.3985      1613.8529     -947.19244      61166.794      39.400818      1.212294     
     47300   303.16734      6746.0007     -2788.4298      1598.516       1616.7415     -314.4258       61166.794      39.400818      1.212294     
     47400   300.77092      7350.1768     -2879.6623      2173.8056      1657.0768      948.94848      61166.794      39.400818      1.212294     
     47500   305.32441      6794.6351     -2876.9383      1612.9626      1654.5778     -983.02573      61166.794      39.400818      1.212294     
     47600   303.7759       7342.6487     -2853.8165      2177.5189      1640.5808     -820.51626      61166.794      39.400818      1.212294     
     47700   297.28959      6884.4975     -2829.8679      1703.4586      1643.0736     -264.939        61166.794      39.400818      1.212294     
     47800   298.22843      6739.3928     -2850.9074      1644.7122      1625.3358     -972.28796      61166.794      39.400818      1.212294     
     47900   300.21228      6955.459      -2835.1888      1788.2871      1616.6273     -19.937093      61166.794      39.400818      1.212294     
     48000   303.57163      6581.452      -2853.4411      1402.8252      1618.7534     -1079.843       61166.794      39.400818      1.212294     
     48100   299.9253       7146.5401     -2795.3755      1891.5632      1629.1621     -331.5122       61166.794      39.400818      1.212294     
     48200   303.01949      7170.9146     -2816.3926      2007.0598      1625.7136     -13.977768      61166.794      39.400818      1.212294     
     48300   299.09704      7303.4296     -2812.4847      2190.3194      1610.5945      92.513806      61166.794      39.400818      1.212294     
     48400   293.50826      7131.2244     -2859.1089      1983.0217      1606.7775      571.20006      61166.794      39.400818      1.212294     
     48500   300.44492      6831.598      -2815.9506      1695.9568      1602.3799     -566.19319      61166.794      39.400818      1.212294     
     48600   298.81458      6895.9769     -2806.5604      1581.8861      1635.4498     -906.16502      61166.794      39.400818      1.212294     
     48700   304.57102      6563.8637     -2837.6111      1335.6004      1645.1938     -1325.9762      61166.794      39.400818      1.212294     
     48800   295.69839      7092.4912     -2816.2764      1822.3721      1639.4573     -1893.1263      61166.794      39.400818      1.212294     
     48900   301.52172      6789.0672     -2812.8062      1630.1774      1634.8738     -1265.1334      61166.794      39.400818      1.212294     
     49000   301.42546      6776.3862     -2813.2645      1589.2611      1630.4611     -199.94676      61166.794      39.400818      1.212294     
     49100   300.9314       7402.6828     -2815.3594      2076.2678      1650.2703     -1328.3534      61166.794      39.400818      1.212294     
     49200   303.30893      7529.9424     -2799.9155      2241.9973      1648.8298      69.729495      61166.794      39.400818      1.212294     
     49300   301.81038      7003.5313     -2808.9642      1824.3234      1650.3023     -238.10363      61166.794      39.400818      1.212294     
     49400   296.66435      7095.6526     -2845.7222      1930.4868      1636.9978     -337.8975       61166.794      39.400818      1.212294     
     49500   299.50615      6404.0194     -2805.1153      1235.3328      1652.6511     -244.16905      61166.794      39.400818      1.212294     
     49600   302.34816      6953.3714     -2794.4875      1806.5521      1662.0277     -234.84046      61166.794      39.400818      1.212294     
     49700   300.12847      7131.9195     -2837.7391      1955.6556      1624.5485     -711.09706      61166.794      39.400818      1.212294     
     49800   300.35593      6715.0325     -2833.4082      1513.5578      1639.3265      96.969485      61166.794      39.400818      1.212294     
     49900   300.82471      7133.2098     -2838.428       1884.6362      1619.6038     -1255.5576      61166.794      39.400818      1.212294     
     50000   302.80597      6854.2485     -2828.8458      1708.1958      1633.3197     -556.44335      61166.794      39.400818      1.212294     
     50100   300.07126      7155.3243     -2864.0062      1961.9725      1653.2483     -38.787942      61166.794      39.400818      1.212294     
     50200   295.4028       6856.8615     -2865.2044      1685.7424      1641.5654      165.11119      61166.794      39.400818      1.212294     
     50300   293.64999      7467.947      -2829.6851      2262.6488      1644.9439     -387.41415      61166.794      39.400818      1.212294     
     50400   298.53514      6640.6933     -2848.7342      1452.422       1633.3706     -16.537648      61166.794      39.400818      1.212294     
     50500   302.892        7098.593      -2822.2633      1924.1707      1629.0583     -563.70057      61166.794      39.400818      1.212294     
     50600   296.45872      6619.0393     -2819.8701      1296.6103      1667.3213      1036.2315      61166.794      39.400818      1.212294     
     50700   298.10979      6853.8154     -2805.9999      1665.786       1663.9758     -1414.5183      61166.794      39.400818      1.212294     
     50800   296.77232      7119.7326     -2861.9123      2014.5704      1610.5763     -1735.9081      61166.794      39.400818      1.212294     
     50900   292.44587      7473.4831     -2857.3958      2333.0187      1644.4121      24.890497      61166.794      39.400818      1.212294     
     51000   298.99525      7004.2605     -2823.3537      1929.1652      1632.2393     -1308.5327      61166.794      39.400818      1.212294     
[...]
    637700   303.75544      6785.7199     -2888.5074      1696.9815      1581.6238     -103.56217      60408.694      39.237363      1.2275077    
    637800   299.73292      7072.5792     -2926.7545      1982.7363      1598.6921     -368.13626      60461.622      39.248819      1.2264332    
    637900   295.53852      6796.337      -2883.2845      1821.2711      1581.3579      1540.4314      60431.767      39.242358      1.2270391    
    638000   288.96689      6659.9163     -2937.5211      1561.0691      1601.8438      393.60001      60620.233      39.28311       1.2232243    
    638100   297.9257       7011.6412     -2896.9316      1844.1459      1580.9171      772.58838      60411.372      39.237943      1.2274533    
    638200   301.26961      6460.0506     -2894.0543      1309.6436      1615.0189      403.24779      60812.658      39.324632      1.2193537    
    638300   299.28354      6778.4979     -2952.7125      1626.4018      1589.8133     -1013.5253      60666.807      39.293168      1.2222852    
    638400   304.51347      6313.1324     -2881.3643      1201.5349      1587.4665      171.24066      60709.667      39.302419      1.2214223    
    638500   304.21454      6860.8058     -2934.96        1683.4295      1608.2683     -965.53781      60684.226      39.296929      1.2219343    
    638600   303.03462      6363.6629     -2868.9984      1245.7124      1600.6858     -580.66251      60485.875      39.254067      1.2259414    
    638700   299.04192      6947.7743     -2900.9992      1857.2499      1590.4347      1472.2061      60388.239      39.232934      1.2279235    
    638800   295.05403      6891.4705     -2898.0445      1788.5004      1549.1104     -454.34408      60335.62       39.221536      1.2289944    
    638900   301.48713      6194.4643     -2899.2102      1119.3577      1582.959      -402.68459      60635.888      39.286492      1.2229084    
    639000   306.33615      6769.4818     -2864.2043      1589.2434      1596.6504      153.0372       60664.621      39.292696      1.2223292    
    639100   304.60521      6654.2044     -2914.2393      1506.796       1611.6499     -758.98272      60949.137      39.354028      1.2166233    
    639200   298.39679      6948.1117     -2913.3663      1696.0041      1604.3497     -252.2757       60681.505      39.296341      1.2219891    
    639300   299.71463      7009.2138     -2909.4629      1919.6471      1577.9841     -1113.2574      60738.877      39.308722      1.2208349    
    639400   299.91214      6518.4992     -2924.858       1432.3086      1590.9972     -1362.6577      60605.081      39.279837      1.2235301    
    639500   295.82734      6838.2934     -2903.2967      1637.4841      1592.5214      998.44678      60214.72       39.195321      1.231462     
    639600   304.66034      6566.3619     -2891.8451      1480.0156      1576.9775      909.47928      60039.5        39.157265      1.2350559    
    639700   302.64034      6540.4871     -2860.7859      1364.1001      1573.6063      788.15459      60379.64       39.231072      1.2280984    
    639800   303.52517      6005.1579     -2905.2373      818.50339      1608.0066      873.03962      60351.282      39.224929      1.2286755    
    639900   300.67628      6246.3114     -2905.9138      1087.7181      1569.4472     -2172.0416      60523.117      39.262122      1.225187     
    640000   299.62394      6730.9681     -2908.9708      1657.8748      1610.9451     -1487.5652      60322.132      39.218613      1.2292692    
    640100   297.85919      6432.972      -2970.1883      1335.3911      1592.2692     -470.75013      60266.454      39.206543      1.2304049    
    640200   302.32782      6204.2572     -2911.3709      1119.541       1588.1923     -623.2025       60487.179      39.254349      1.225915     
    640300   299.73138      6710.3562     -2913.3705      1520.2025      1603.5707      366.63829      60399.589      39.235392      1.2276928    
    640400   297.47585      7051.2082     -2923.7847      1823.8371      1588.0617      1194.8263      60221.141      39.196714      1.2313307    
    640500   301.34585      6332.2302     -2855.8499      1225.7308      1599.1343     -146.72653      60185.225      39.18892       1.2320655    
    640600   300.11427      6573.0633     -2958.5706      1475.1188      1600.2495     -735.04184      60257.294      39.204556      1.2305919    
    640700   301.39009      5970.1106     -2924.8242      866.58009      1585.3247     -1091.411       60443.883      39.244981      1.2267931    
    640800   300.81555      6418.3791     -2916.7341      1274.9995      1584.2549     -1285.3336      60605.885      39.280011      1.2235138    
    640900   302.84406      6652.9599     -2932.6455      1547.0339      1593.7193     -838.31558      60534.328      39.264546      1.2249602    
    641000   298.40578      6835.308      -2880.0734      1608.3283      1585.8805     -881.18916      60453.286      39.247016      1.2266023    
    641100   295.60629      6990.3662     -2894.1873      1849.9018      1566.715       771.71895      60412.64       39.238218      1.2274276    
    641200   295.93197      6194.3058     -2914.3902      1162.3844      1572.7831     -1186.4969      60705.718      39.301567      1.2215017    
    641300   296.95944      7141.868      -2898.3465      1996.509       1582.5657      500.87538      60647.474      39.288994      1.2226748    
    641400   301.38147      6603.6619     -2888.1397      1527.3881      1593.9409      3100.0815      60628.845      39.284971      1.2230505    
    641500   298.07446      6891.2028     -2854.6108      1718.3811      1604.7766      96.772883      60734.976      39.30788       1.2209133    
    641600   296.95856      7141.9046     -2876.9605      1962.0228      1605.4571      572.29806      61013.07       39.367783      1.2153484    
    641700   304.02287      7368.3021     -2893.9553      2210.0224      1565.3016      958.3445       60693.892      39.299015      1.2217397    
    641800   306.41392      6931.9381     -2879.6848      1707.6058      1620.413      -383.95722      60658.759      39.291431      1.2224473    
    641900   307.62763      6812.2592     -2881.8515      1698.9051      1611.8704      1308.7765      60640.774      39.287547      1.2228099    
    642000   297.39009      6958.2118     -2879.2546      1756.8395      1620.8858     -1355.6976      60756.534      39.31253       1.2204801    
    642100   302.78519      6708.0791     -2890.4994      1650.4737      1592.7645     -582.67969      60765.575      39.31448       1.2202985    
    642200   298.81881      6754.1397     -2904.5858      1627.7721      1586.7333     -237.33017      60423.768      39.240627      1.2272015    
    642300   303.22353      6652.2812     -2912.0387      1519.2727      1610.9733      905.83992      60327.244      39.219721      1.229165     
    642400   305.49614      6811.7942     -2860.0893      1555.6534      1625.0413     -1063.4844      60426.743      39.241271      1.2271411    
    642500   303.59121      6651.2928     -2872.367       1456.3503      1604.8229     -1472.2953      60593.113      39.277251      1.2237717    
    642600   299.97707      6415.53       -2872.6643      1277.4359      1609.5253      2090.8561      60607.133      39.28028       1.2234887    
    642700   299.19314      6798.8043     -2889.7399      1649.9372      1601.6725      116.51561      60575.861      39.273523      1.2241203    
    642800   298.52031      6704.3887     -2874.9946      1520.0056      1610.0447     -972.60708      60456.189      39.247644      1.2265434    
    642900   304.23224      6677.7269     -2936.2227      1621.3592      1591.8704      212.6011       60323.203      39.218845      1.2292474    
    643000   300.76125      6662.4366     -2917.987       1433.9237      1603.3099      457.78212      60479.565      39.252702      1.2260693    
    643100   302.77204      6755.0463     -2863.9463      1533.7962      1587.1218     -1735.8417      60623.3        39.283773      1.2231624    
    643200   301.71296      6379.5214     -2893.9074      1131.6953      1624.4922      679.89476      60463.252      39.249172      1.2264001    
    643300   301.77712      6635.2043     -2889.4231      1561.332       1601.1208      1086.7743      60346.326      39.223855      1.2287764    
    643400   297.98954      6802.9821     -2927.4214      1735.4874      1582.6437     -831.26728      60351.757      39.225032      1.2286658    
    643500   303.1869       6383.5978     -2897.4797      1321.3986      1606.455      -1625.9656      60556.958      39.269438      1.2245024    
    643600   303.65897      6214.1751     -2893.9616      1036.8805      1614.9723      73.403701      60419.896      39.239789      1.2272801    
    643700   305.52857      6217.9023     -2905.7892      1012.7877      1627.0509      1049.5902      60116.971      39.1741        1.2334643    
    643800   297.1539       6456.73       -2894.9682      1243.3163      1628.4424      201.83678      60489.516      39.254854      1.2258676    
    643900   300.06387      6902.0283     -2880.7043      1766.1278      1639.1399     -397.93679      60217.456      39.195915      1.231406     
    644000   295.55954      6585.543      -2915.1068      1371.9463      1629.884       14.249792      60302.27       39.214308      1.2296741    
    644100   302.66899      7004.5909     -2899.5783      1901.4927      1615.5284     -140.57838      60218.391      39.196117      1.2313869    
    644200   300.48907      6812.2199     -2884.5523      1539.8654      1628.2109      301.17958      60196.039      39.191267      1.2318442    
    644300   306.81805      7019.8721     -2880.5735      1846.3319      1637.902       442.20735      60137.395      39.178536      1.2330454    
    644400   298.54048      6465.3384     -2922.8274      1240.5758      1629.2626      805.64669      60239.019      39.200592      1.2309653    
    644500   302.2314       6790.4351     -2945.7152      1644.1905      1628.0127     -2252.269       60459.242      39.248304      1.2264815    
    644600   297.64182      6947.3594     -2871.2207      1726.6734      1574.0316      124.61916      60383.145      39.231831      1.2280271    
    644700   300.79473      6535.5238     -2918.8044      1391.3617      1632.0411     -290.7745       60697.111      39.29971       1.2216749    
    644800   297.71571      6638.5884     -2929.3535      1392.6427      1638.3301     -1553.9099      60481.199      39.253055      1.2260362    
    644900   302.17207      6543.5645     -2899.264       1371.2578      1608.1579      81.139449      60179.873      39.187758      1.2321751    
    645000   302.55078      6652.7666     -2893.7169      1486.7182      1626.1486      1055.796       60338.464      39.222152      1.2289365    
    645100   299.14272      6366.1644     -2851.4452      1272.4772      1598.7037      889.79549      60240.578      39.200931      1.2309334    
    645200   298.65684      6116.9367     -2906.4849      1040.7169      1605.8796     -1485.5974      60214.36       39.195243      1.2314694    
    645300   299.13813      6465.1323     -2912.5248      1351.7873      1597.4597      199.8004       60203.989      39.192992      1.2316815    
    645400   298.05424      6538.2501     -2907.2993      1250.0644      1595.0549      358.36892      60213.712      39.195102      1.2314826    
    645500   302.20006      6722.796      -2869.5323      1446.503       1611.447       1761.6038      60176.515      39.18703       1.2322438    
    645600   304.0771       6114.2253     -2872.3763      987.75528      1589.3913     -901.07075      60552.642      39.268505      1.2245897    
    645700   300.64417      6420.1537     -2857.4845      1294.8835      1583.3897      600.63802      60250.812      39.20315       1.2307243    
    645800   294.10398      6474.2956     -2889.9744      1261.3801      1597.6495     -1022.2626      60735.626      39.30802       1.2209002    
    645900   297.49233      6753.9207     -2884.01        1592.9976      1598.5613      767.81698      60383.089      39.231819      1.2280283    
    646000   303.88591      6765.6312     -2906.2786      1546.229       1608.4877      734.14546      60402.035      39.235922      1.2276431    
    646100   303.1035       6759.8897     -2886.0663      1501.9378      1611.5337     -126.34205      60170.799      39.185789      1.2323609    
    646200   302.77512      6564.5007     -2887.414       1384.6408      1580.1126     -123.23788      60339.558      39.222389      1.2289142    
    646300   300.25713      5841.1522     -2910.5799      702.44179      1647.3109     -877.90211      60406.945      39.236985      1.2275433    
    646400   303.24328      6453.2734     -2952.7012      1363.4378      1622.4892     -1368.3685      60332.348      39.220827      1.2290611    
    646500   297.79795      6517.3489     -2925.8531      1309.3057      1610.4864     -416.75164      60486.06       39.254107      1.2259377    
    646600   299.90096      6264.4263     -2895.5242      1081.004       1603.5463     -88.027385      60411.606      39.237994      1.2274486    
    646700   305.44072      6814.5969     -2875.9206      1554.3159      1606.1955     -983.89113      60604.74       39.279763      1.223537     
    646800   305.16886      6347.0711     -2864.9501      1115.6182      1613.841      -51.041259      60621.044      39.283286      1.2232079    
    646900   303.23158      6754.4576     -2847.0956      1624.4443      1618.024       1265.1013      60611.013      39.281119      1.2234103    
    647000   299.33855      6733.8952     -2856.931       1591.4131      1608.6025      1110.2788      60164.436      39.184407      1.2324912    
    647100   297.32993      6581.6043     -2922.1612      1431.6906      1623.4831      21.431179      60351.31       39.224935      1.2286749    
    647200   298.8867       6935.0532     -2891.2293      1733.2972      1584.3225      65.514147      60202.979      39.192773      1.2317022    
    647300   303.42489      6983.1806     -2846.6707      1723.8117      1612.0973      1611.3082      60195.306      39.191108      1.2318592    
    647400   304.40707      6500.6993     -2897.2782      1251.1026      1596.0397     -984.86855      60531.082      39.263844      1.2250258    
    647500   302.57756      7059.1023     -2871.8687      1961.5417      1598.1187      472.97875      60460.669      39.248613      1.2264525    
    647600   298.93234      6352.6964     -2938.5402      1271.6658      1611.0613     -902.51245      60590.713      39.276733      1.2238202    
    647700   298.7869       6689.4013     -2923.6927      1627.3752      1605.6362      568.29378      60443.339      39.244863      1.2268042    
    647800   302.98503      6346.7116     -2903.2165      1215.9889      1593.3056     -876.87011      60190.45       39.190054      1.2319586    
    647900   306.08914      6623.4818     -2913.2931      1533.2866      1607.044       2055.6039      60276.468      39.208714      1.2302005    
    648000   305.39799      6408.7306     -2902.2488      1302.1133      1594.2038     -1290.2805      60417.336      39.239234      1.2273322    
    648100   298.95061      6620.4517     -2840.6819      1471.1044      1589.4607      602.69624      60462.337      39.248974      1.2264187    
    648200   292.38399      6421.3254     -2840.957       1202.5401      1620.7242      679.84547      60467.818      39.25016       1.2263075    
    648300   300.5333       5987.5392     -2909.9785      869.98409      1592.7915     -1112.0329      60642.183      39.287851      1.2227815    
    648400   302.15753      6645.1114     -2943.287       1552.2168      1600.6778     -1226.5258      60736.512      39.308211      1.2208824    
    648500   304.64261      6696.806      -2893.9203      1622.0334      1627.7842      823.03867      60684.561      39.297001      1.2219276    
    648600   304.53964      6232.2745     -2910.7313      1150.1778      1603.6795     -671.3683       60706.817      39.301804      1.2214796    
    648700   293.9629       7152.2179     -2888.6829      1959.2626      1625.1718     -1069.6003      60422.318      39.240313      1.227231     
    648800   296.28695      6632.9737     -2916.1593      1490.8989      1627.8599     -367.43882      60352.642      39.225224      1.2286478    
    648900   301.10698      6773.2468     -2907.0432      1647.5846      1598.3559      305.16408      60379.385      39.231017      1.2281036    
    649000   303.59389      7110.7384     -2879.7931      1991.1373      1593.5557      612.83939      60411.806      39.238037      1.2274445    
    649100   304.83667      6602.5982     -2895.0421      1527.737       1615.1736      396.65766      60339.187      39.222308      1.2289218    
    649200   299.28742      6800.5421     -2919.8749      1725.6916      1617.2206     -102.99011      60192.969      39.190601      1.231907     
    649300   294.34798      6658.1336     -2864.3546      1537.3904      1627.589      -1433.5729      60143.297      39.179818      1.2329244    
    649400   296.13865      6633.432      -2890.1861      1469.9724      1611.0446     -17.185787      60331.768      39.220701      1.2290729    
    649500   301.18362      6518.9907     -2863.806       1428.6114      1615.2163      858.09905      60122.785      39.175363      1.233345     
    649600   298.41268      6961.6308     -2830.9406      1764.668       1622.1449      1294.2077      60148.589      39.180967      1.2328159    
    649700   305.91122      6580.6679     -2883.4958      1483.5911      1638.5733      149.00199      60573.852      39.273089      1.2241609    
    649800   299.25829      7233.1622     -2872.4399      1998.4825      1598.114       377.40349      60319.8        39.218107      1.2293167    
    649900   297.64072      6524.8364     -2889.2625      1397.9712      1603.0034     -120.11595      60361          39.227034      1.2284776    
    650000   294.90519      6679.9121     -2858.8358      1569.4347      1612.486       186.48716      60319.923      39.218134      1.2293142    
    650073   296.42522      6701.6603     -2839.2768      1531.0315      1600.9991     -953.22787      60247.874      39.202513      1.2307843    
Loop time of 8805.77 on 4 procs for 500000 steps with 6487 atoms

Performance: 4.906 ns/day, 4.892 hours/ns, 56.781 timesteps/s
94.5% CPU use with 1 MPI tasks x 4 OpenMP threads

MPI task timing breakdown:
Section |  min time  |  avg time  |  max time  |%varavg| %total
---------------------------------------------------------------
Pair    | 6435.1     | 6435.1     | 6435.1     |   0.0 | 73.08
Bond    | 829.1      | 829.1      | 829.1      |   0.0 |  9.42
Neigh   | 936.91     | 936.91     | 936.91     |   0.0 | 10.64
Comm    | 94.975     | 94.975     | 94.975     |   0.0 |  1.08
Output  | 1.7232     | 1.7232     | 1.7232     |   0.0 |  0.02
Modify  | 496.29     | 496.29     | 496.29     |   0.0 |  5.64
Other   |            | 11.67      |            |       |  0.13

Nlocal:           6487 ave        6487 max        6487 min
Histogram: 1 0 0 0 0 0 0 0 0 0
Nghost:          20625 ave       20625 max       20625 min
Histogram: 1 0 0 0 0 0 0 0 0 0
Neighs:    2.49026e+06 ave 2.49026e+06 max 2.49026e+06 min
Histogram: 1 0 0 0 0 0 0 0 0 0

Total # of neighbors = 2490262
Ave neighs/atom = 383.885
Ave special neighs/atom = 11.83043
Neighbor list builds = 24867
Dangerous builds = 0
unfix			1
#final
write_data		PVA_GA_NC_OXY_LARGE_DIHEDRALS_EQUILIBRATED_WITH_PREV_CHARGE_AFTER_LINKING.data
System init for write_data ...
Generated 231 of 231 mixed pair_coeff terms from geometric mixing rule
Last active /omp style is dihedral_style harmonic/omp

#parameter
neighbor		2.0 bin
Total wall time: 3:09:34
