LAMMPS (15 Sep 2022)
OMP_NUM_THREADS environment is not set. Defaulting to 1 thread. (src/comm.cpp:98)
  using 1 OpenMP thread(s) per MPI task
Loaded 1 plugins from C:\Users\HP\AppData\Local\LAMMPS 64-bit 15Sep2022\plugins
package omp 0
using multi-threaded neighbor list subroutines
package omp 4
set 4 OpenMP thread(s) per MPI task
using multi-threaded neighbor list subroutines
# Initialization
units			real
dimension		3
processors		* * *
boundary		p p p
atom_style		full
pair_style		lj/cut/coul/cut 10.0
bond_style		harmonic
angle_style 	harmonic
dihedral_style  harmonic
read_data		PVA_GA_NC_OXY_LARGE_DIHEDRALS_INPUT_WITH_CHARGE_AFTER_LINKING.data
Reading data file ...
  orthogonal box = (0.0002 0.002796 -0.00163) to (39.401018 39.403614 39.399188)
  1 by 1 by 1 MPI processor grid
  reading atoms ...
  6487 atoms
  reading velocities ...
  6487 velocities
  scanning bonds ...
  4 = max bonds/atom
  scanning angles ...
  6 = max angles/atom
  scanning dihedrals ...
  12 = max dihedrals/atom
  reading bonds ...
  6576 bonds
  reading angles ...
  12293 angles
  reading dihedrals ...
  19554 dihedrals
Finding 1-2 1-3 1-4 neighbors ...
  special bond factors lj:    0        0        0       
  special bond factors coul:  0        0        0       
     4 = max # of 1-2 neighbors
     7 = max # of 1-3 neighbors
    16 = max # of 1-4 neighbors
    20 = max # of special neighbors
  special bonds CPU = 0.006 seconds
  read_data CPU = 0.190 seconds



thermo			100
thermo_style	custom step temp pe evdwl ecoul edihed press vol lx density



timestep 1


#intial minimization
minimize		1.0e-5 1.0e-5 10000 10000
Switching to 'neigh_modify every 1 delay 0 check yes' setting during minimization
Generated 231 of 231 mixed pair_coeff terms from geometric mixing rule
Last active /omp style is dihedral_style harmonic/omp
Neighbor list info ...
  update: every = 1 steps, delay = 0 steps, check = yes
  max neighbors/atom: 2000, page size: 100000
  master list distance cutoff = 12
  ghost atom cutoff = 12
  binsize = 6, bins = 7 7 7
  1 neighbor lists, perpetual/occasional/extra = 1 0 0
  (1) pair lj/cut/coul/cut/omp, perpetual
      attributes: half, newton on, omp
      pair build: half/bin/newton/omp
      stencil: half/bin/3d
      bin: standard
WARNING: Inconsistent image flags (src/domain.cpp:819)
Per MPI rank memory allocation (min/avg/max) = 42.56 | 42.56 | 42.56 Mbytes
   Step          Temp          PotEng         E_vdwl         E_coul        E_dihed         Press          Volume           Lx          Density    
         0   0              497054.37     -3047.3486      0              1514.6012     -524812.09      61166.794      39.400818      1.212294     
       100   0              2255.8789     -2992.0554      0              1511.004      -3579.5695      61166.794      39.400818      1.212294     
       200   0             -291.48783     -3300.0205      0              1346.2537      236.69747      61166.794      39.400818      1.212294     
       300   0             -743.00873     -3439.1421      0              1267.6878     -96.051267      61166.794      39.400818      1.212294     
       400   0             -936.91393     -3499.9643      0              1241.7524     -197.09993      61166.794      39.400818      1.212294     
       500   0             -1071.8002     -3535.8029      0              1222.6707     -224.97917      61166.794      39.400818      1.212294     
       600   0             -1172.4371     -3580.1536      0              1210.7891     -466.35142      61166.794      39.400818      1.212294     
       700   0             -1223.6349     -3596.6745      0              1204.2846     -366.74203      61166.794      39.400818      1.212294     
       800   0             -1264.4418     -3611.8998      0              1194.1229     -483.57384      61166.794      39.400818      1.212294     
       900   0             -1293.1573     -3621.5109      0              1189.9541     -593.01873      61166.794      39.400818      1.212294     
      1000   0             -1310.7438     -3622.5615      0              1183.2447     -519.48089      61166.794      39.400818      1.212294     
      1100   0             -1326.5048     -3623.3039      0              1175.9697     -548.77786      61166.794      39.400818      1.212294     
      1200   0             -1336.2173     -3628.5335      0              1174.0763     -627.20085      61166.794      39.400818      1.212294     
      1300   0             -1344.7241     -3628.7154      0              1171.1961     -577.58088      61166.794      39.400818      1.212294     
      1400   0             -1351.4481     -3632.8427      0              1169.1903     -623.35412      61166.794      39.400818      1.212294     
      1500   0             -1357.0244     -3632.6334      0              1163.7331     -583.78984      61166.794      39.400818      1.212294     
      1600   0             -1361.119      -3633.4158      0              1161.1351     -574.53029      61166.794      39.400818      1.212294     
      1700   0             -1364.5166     -3636.1492      0              1155.0341     -592.75155      61166.794      39.400818      1.212294     
      1800   0             -1367.4664     -3634.2644      0              1149.8923     -550.64108      61166.794      39.400818      1.212294     
      1900   0             -1370.2319     -3632.616       0              1146.4952     -507.49483      61166.794      39.400818      1.212294     
      2000   0             -1373.5335     -3634.3974      0              1144.1421     -505.96241      61166.794      39.400818      1.212294     
      2100   0             -1379.6435     -3642.9786      0              1150.3189     -512.77812      61166.794      39.400818      1.212294     
      2200   0             -1384.7092     -3642.8662      0              1152.4294     -513.23444      61166.794      39.400818      1.212294     
      2300   0             -1389.147      -3641.4         0              1150.8331     -456.71159      61166.794      39.400818      1.212294     
      2400   0             -1394.3336     -3640.4573      0              1150.8403     -435.04056      61166.794      39.400818      1.212294     
      2500   0             -1398.2318     -3644.1094      0              1148.1898     -546.71991      61166.794      39.400818      1.212294     
      2594   0             -1400.9597     -3644.9884      0              1152.001      -512.03099      61166.794      39.400818      1.212294     
Loop time of 153.661 on 4 procs for 2594 steps with 6487 atoms

157.6% CPU use with 1 MPI tasks x 4 OpenMP threads

Minimization stats:
  Stopping criterion = energy tolerance
  Energy initial, next-to-last, final = 
      497054.368954119  -1400.94748926607  -1400.95966034437
  Force two-norm initial, final = 41947.222 5.8614996
  Force max component initial, final = 4892.1557 1.0123399
  Final line search alpha, max atom move = 0.02047556 0.020728227
  Iterations, force evaluations = 2594 5105

MPI task timing breakdown:
Section |  min time  |  avg time  |  max time  |%varavg| %total
---------------------------------------------------------------
Pair    | 140.49     | 140.49     | 140.49     |   0.0 | 91.43
Bond    | 8.2389     | 8.2389     | 8.2389     |   0.0 |  5.36
Neigh   | 2.1998     | 2.1998     | 2.1998     |   0.0 |  1.43
Comm    | 0.92653    | 0.92653    | 0.92653    |   0.0 |  0.60
Output  | 0.016561   | 0.016561   | 0.016561   |   0.0 |  0.01
Modify  | 1.0221     | 1.0221     | 1.0221     |   0.0 |  0.67
Other   |            | 0.77       |            |       |  0.50

Nlocal:           6487 ave        6487 max        6487 min
Histogram: 1 0 0 0 0 0 0 0 0 0
Nghost:          20585 ave       20585 max       20585 min
Histogram: 1 0 0 0 0 0 0 0 0 0
Neighs:     2.4544e+06 ave  2.4544e+06 max  2.4544e+06 min
Histogram: 1 0 0 0 0 0 0 0 0 0

Total # of neighbors = 2454396
Ave neighs/atom = 378.3561
Ave special neighs/atom = 11.83043
Neighbor list builds = 59
Dangerous builds = 0

# nvt for 200 ps
fix			1 all nvt temp 300 300 100
run			150000
Generated 231 of 231 mixed pair_coeff terms from geometric mixing rule
Last active /omp style is dihedral_style harmonic/omp
WARNING: Inconsistent image flags (src/domain.cpp:819)
Per MPI rank memory allocation (min/avg/max) = 40.33 | 40.33 | 40.33 Mbytes
   Step          Temp          PotEng         E_vdwl         E_coul        E_dihed         Press          Volume           Lx          Density    
      2594   0             -1400.9597     -3644.9884      0              1152.001      -512.03099      61166.794      39.400818      1.212294     
      2600   0.0011221955  -1400.9817     -3645.0177      0              1151.9971     -511.19614      61166.794      39.400818      1.212294     
      2700   0.037744002   -1401.6022     -3645.6708      0              1151.476      -521.36794      61166.794      39.400818      1.212294     
      2800   0.0618617     -1401.746      -3645.8296      0              1151.3017     -519.38897      61166.794      39.400818      1.212294     
      2900   0.086375704   -1401.6955     -3645.7771      0              1151.5721     -520.26102      61166.794      39.400818      1.212294     
      3000   0.1321504     -1401.789      -3646.0999      0              1152.3883     -517.98624      61166.794      39.400818      1.212294     
      3100   0.18619569    -1401.6099     -3645.3343      0              1154.1474     -500.20184      61166.794      39.400818      1.212294     
      3200   0.27128448    -1401.3786     -3646.0015      0              1155.6967     -496.20605      61166.794      39.400818      1.212294     
      3300   0.39002139    -1400.8542     -3645.7017      0              1156.9304     -469.24839      61166.794      39.400818      1.212294     
      3400   0.54552659    -1399.8106     -3643.0509      0              1156.728      -396.54575      61166.794      39.400818      1.212294     
      3500   0.75124467    -1397.8848     -3641.2194      0              1156.4813     -358.97161      61166.794      39.400818      1.212294     
      3600   0.95586077    -1394.0804     -3637.244       0              1157.3852     -306.13288      61166.794      39.400818      1.212294     
      3700   1.2493689     -1389.4176     -3634.6524      0              1159.686      -276.15223      61166.794      39.400818      1.212294     
      3800   1.6874852     -1383.9997     -3632.4656      0              1162.2582     -245.81183      61166.794      39.400818      1.212294     
      3900   2.3843289     -1377.8779     -3625.4477      0              1162.9198     -156.58525      61166.794      39.400818      1.212294     
      4000   3.4403341     -1370.0705     -3620.6808      0              1165.3711     -100.14377      61166.794      39.400818      1.212294     
      4100   5.0736603     -1359.1742     -3623.6688      0              1168.4169     -194.39366      61166.794      39.400818      1.212294     
      4200   6.8101659     -1333.033      -3613.6031      0              1174.3346     -168.59955      61166.794      39.400818      1.212294     
      4300   9.3564947     -1301.0094     -3592.6449      0              1171.9698      112.49015      61166.794      39.400818      1.212294     
      4400   12.031885     -1241.3836     -3559.2352      0              1182.897       469.64604      61166.794      39.400818      1.212294     
      4500   15.923123     -1172.9201     -3534.108       0              1198.6215      679.11514      61166.794      39.400818      1.212294     
      4600   21.69234      -1090.3151     -3490.8971      0              1211.003       1313.4641      61166.794      39.400818      1.212294     
      4700   30.60545      -992.34913     -3445.0645      0              1236.1902      1875.813       61166.794      39.400818      1.212294     
      4800   41.42704      -828.3456      -3386.5699      0              1284.1632      2543.8345      61166.794      39.400818      1.212294     
      4900   54.925943     -591.62013     -3298.7835      0              1325.5246      2998.6888      61166.794      39.400818      1.212294     
      5000   75.642842     -328.43647     -3209.3343      0              1388.8196      3882.7412      61166.794      39.400818      1.212294     
      5100   101.06403      48.916954     -3037.4788      0              1468.0457      5953.9861      61166.794      39.400818      1.212294     
      5200   131.11198      577.49142     -2923.7627      0              1572.5335      6862.1682      61166.794      39.400818      1.212294     
      5300   163.4183       1289.3766     -2706.9835      0              1709.7806      7793.2342      61166.794      39.400818      1.212294     
      5400   211.32393      1909.7439     -2546.7093      0              1842.0783      9276.9735      61166.794      39.400818      1.212294     
      5500   256.26885      2703.7736     -2366.0612      0              1943.6829      11581.797      61166.794      39.400818      1.212294     
      5600   299.54225      3408.297      -2330.0755      0              2052.7589      10229.383      61166.794      39.400818      1.212294     
      5700   315.10343      4119.8835     -2091.6781      0              2120.6935      13767.1        61166.794      39.400818      1.212294     
      5800   317.76769      4326.7988     -2237.6222      0              2152.8405      10872.092      61166.794      39.400818      1.212294     
      5900   300.35845      4363.378      -2287.5886      0              2164.0956      9729.1918      61166.794      39.400818      1.212294     
      6000   292.7668       4211.8966     -2289.4554      0              2116.67        11201.889      61166.794      39.400818      1.212294     
      6100   295.92995      4159.7443     -2430.3682      0              2141.3934      8036.258       61166.794      39.400818      1.212294     
      6200   300.932        4316.9105     -2508.7468      0              2151.9739      8877.1823      61166.794      39.400818      1.212294     
      6300   305.78872      4480.637      -2517.1216      0              2138.4657      7694.643       61166.794      39.400818      1.212294     
      6400   308.57221      4471.4387     -2570.4571      0              2174.8591      8759.1568      61166.794      39.400818      1.212294     
      6500   302.18547      4465.8929     -2509.8726      0              2142.2303      9096.0248      61166.794      39.400818      1.212294     
      6600   299.96985      4396.5648     -2571.0162      0              2097.707       8938.027       61166.794      39.400818      1.212294     
      6700   305.31458      4203.1887     -2627.1572      0              2057.7187      8414.8467      61166.794      39.400818      1.212294     
      6800   299.22678      4205.6007     -2729.6097      0              2058.4666      6890.0421      61166.794      39.400818      1.212294     
      6900   296.07618      4257.436      -2714.1954      0              2063.0437      7985.1644      61166.794      39.400818      1.212294     
      7000   297.21157      4301.2259     -2700.1134      0              2064.5202      6444.309       61166.794      39.400818      1.212294     
      7100   298.4096       4362.2768     -2659.9712      0              2078.2141      6379.8443      61166.794      39.400818      1.212294     
      7200   302.96455      4310.1273     -2730.464       0              2041.18        6596.955       61166.794      39.400818      1.212294     
      7300   297.90598      4360.6437     -2769.2315      0              2063.7029      6004.6214      61166.794      39.400818      1.212294     
      7400   299.88865      4244.0734     -2780.143       0              2043.8834      5938.8114      61166.794      39.400818      1.212294     
      7500   297.22589      4266.3742     -2795.7612      0              2016.7224      7371.2511      61166.794      39.400818      1.212294     
      7600   299.76089      4306.6106     -2765.0743      0              1973.9719      4453.4784      61166.794      39.400818      1.212294     
      7700   304.5909       4289.3711     -2796.1333      0              2017.5466      6091.6539      61166.794      39.400818      1.212294     
      7800   306.49506      4197.2756     -2875.624       0              1968.1678      4767.5949      61166.794      39.400818      1.212294     
      7900   298.29441      4196.2142     -2919.5807      0              1980.0106      5337.2239      61166.794      39.400818      1.212294     
      8000   294.424        4199.8388     -2844.2323      0              1921.647       5511.7891      61166.794      39.400818      1.212294     
      8100   298.7167       4238.0915     -2915.5554      0              1941.7858      6025.617       61166.794      39.400818      1.212294     
      8200   302.51737      4300.8024     -2887.7216      0              1927.3175      5302.5493      61166.794      39.400818      1.212294     
      8300   305.98165      4250.8117     -2896.4983      0              1921.3154      5576.2671      61166.794      39.400818      1.212294     
      8400   300.87477      4203.9729     -2968.6435      0              1884.7599      3447.329       61166.794      39.400818      1.212294     
      8500   295.92274      4172.2512     -2971.8373      0              1913.3785      5369.2654      61166.794      39.400818      1.212294     
      8600   295.0096       4221.4688     -2936.8908      0              1909.4275      4617.2857      61166.794      39.400818      1.212294     
      8700   302.90997      4277.8759     -2931.6291      0              1914.2519      5354.387       61166.794      39.400818      1.212294     
      8800   309.09029      4325.8505     -2932.4369      0              1913.0492      5037.2744      61166.794      39.400818      1.212294     
      8900   306.55039      4293.0332     -2975.2097      0              1893.3317      6054.6429      61166.794      39.400818      1.212294     
      9000   297.58475      4245.0713     -3015.2952      0              1861.6553      2429.5626      61166.794      39.400818      1.212294     
      9100   293.37563      4130.6608     -2956.9374      0              1853.9585      5221.7224      61166.794      39.400818      1.212294     
      9200   295.86985      4120.7973     -2989.1806      0              1847.9905      5034.7921      61166.794      39.400818      1.212294     
      9300   304.81285      4163.3257     -2951.1146      0              1825.6309      4457.6597      61166.794      39.400818      1.212294     
      9400   305.68143      4294.4683     -2967.3021      0              1861.1734      5357.011       61166.794      39.400818      1.212294     
      9500   304.75484      4278.5902     -3033.2775      0              1889.7284      1880.8412      61166.794      39.400818      1.212294     
      9600   298.33944      4282.9436     -3023.8039      0              1907.1468      4310.3236      61166.794      39.400818      1.212294     
      9700   299.61754      4183.971      -3046.8409      0              1865.7975      3691.8683      61166.794      39.400818      1.212294     
      9800   300.43479      4166.4888     -3008.574       0              1903.7378      5346.0239      61166.794      39.400818      1.212294     
      9900   303.90337      4164.399      -3105.1815      0              1872.9443      2885.9584      61166.794      39.400818      1.212294     
     10000   300.45282      4259.0896     -3035.4877      0              1854.5206      2425.8389      61166.794      39.400818      1.212294     
     10100   300.44072      4274.1497     -3080.7155      0              1842.4257      3770.8122      61166.794      39.400818      1.212294     
     10200   302.27655      4234.5228     -3052.7746      0              1823.0029      4134.3053      61166.794      39.400818      1.212294     
     10300   300.80588      4199.4175     -3095.1643      0              1809.9863      4426.3846      61166.794      39.400818      1.212294     
     10400   298.78256      4156.6851     -3070.3421      0              1862.0852      3512.349       61166.794      39.400818      1.212294     
     10500   298.25467      4178.1774     -3106.908       0              1806.4888      4060.3819      61166.794      39.400818      1.212294     
     10600   299.22511      4210.8977     -3061.569       0              1767.3473      2378.4784      61166.794      39.400818      1.212294     
     10700   300.61671      4238.7205     -3093.6367      0              1801.3329      2612.3242      61166.794      39.400818      1.212294     
     10800   300.53694      4232.9529     -3091.8249      0              1821.9839      3333.5851      61166.794      39.400818      1.212294     
     10900   303.14288      4163.435      -3109.9678      0              1780.9399      4201.6884      61166.794      39.400818      1.212294     
     11000   295.25209      4266.5197     -3100.1704      0              1782.2548      4126.0426      61166.794      39.400818      1.212294     
     11100   303.15101      4107.5386     -3110.6669      0              1764.8158      2741.9027      61166.794      39.400818      1.212294     
     11200   298.3389       4209.6639     -3095.8505      0              1753.1028      3737.0624      61166.794      39.400818      1.212294     
     11300   303.58274      4152.8475     -3119.8406      0              1767.2293      3751.5502      61166.794      39.400818      1.212294     
     11400   299.28495      4256.2685     -3091.4583      0              1766.7807      4055.3136      61166.794      39.400818      1.212294     
     11500   296.94261      4280.0672     -3139.6169      0              1766.908       3171.1633      61166.794      39.400818      1.212294     
     11600   302.94639      4117.8954     -3095.1825      0              1744.7158      4149.562       61166.794      39.400818      1.212294     
     11700   296.62089      4211.5897     -3105.2333      0              1752.0303      2795.9799      61166.794      39.400818      1.212294     
     11800   297.35961      4220.1623     -3138.2966      0              1764.5303      3344.2216      61166.794      39.400818      1.212294     
     11900   300.60059      4252.1452     -3111.8112      0              1775.1053      2439.5129      61166.794      39.400818      1.212294     
     12000   302.16461      4289.198      -3153.5411      0              1806.3435      2261.2443      61166.794      39.400818      1.212294     
     12100   303.3204       4250.4459     -3128.5237      0              1810.9025      2834.3835      61166.794      39.400818      1.212294     
     12200   303.02721      4148.8196     -3194.8449      0              1783.9536      2431.0655      61166.794      39.400818      1.212294     
     12300   297.81968      4121.4376     -3173.9615      0              1759.5406      2560.7416      61166.794      39.400818      1.212294     
     12400   292.09756      4188.9089     -3198.8897      0              1774.7048      2446.5255      61166.794      39.400818      1.212294     
     12500   299.52607      4175.2768     -3233.0169      0              1766.0693      2044.7678      61166.794      39.400818      1.212294     
     12600   303.11661      4260.4479     -3164.9793      0              1773.4472      1790.947       61166.794      39.400818      1.212294     
     12700   307.72873      4173.7071     -3208.4974      0              1761.3435      1729.568       61166.794      39.400818      1.212294     
     12800   298.64745      4205.3341     -3164.5129      0              1769.0927      1545.3676      61166.794      39.400818      1.212294     
     12900   295.41681      4151.9099     -3211.5299      0              1758.4061      3129.9433      61166.794      39.400818      1.212294     
     13000   301.90586      4014.9193     -3177.551       0              1755.4628      1124.7834      61166.794      39.400818      1.212294     
     13100   299.40007      4165.9814     -3165.8685      0              1740.2418      2660.6623      61166.794      39.400818      1.212294     
     13200   303.43369      4247.2506     -3175.8345      0              1775.5778      2971.6412      61166.794      39.400818      1.212294     
     13300   301.0619       4341.5195     -3137.8988      0              1770.7196      2118.9614      61166.794      39.400818      1.212294     
     13400   299.66809      4278.6535     -3192.1066      0              1813.0742      1113.1242      61166.794      39.400818      1.212294     
     13500   300.22212      4129.6426     -3201.7653      0              1758.7001      1394.2567      61166.794      39.400818      1.212294     
     13600   296.81869      4081.1404     -3222.2794      0              1749.2729      1588.9187      61166.794      39.400818      1.212294     
     13700   297.1489       4070.0771     -3226.6531      0              1750.6105      670.6261       61166.794      39.400818      1.212294     
     13800   300.21601      4113.111      -3218.0288      0              1719.1694      1437.3646      61166.794      39.400818      1.212294     
     13900   301.88107      4191.3443     -3197.0517      0              1721.87        2223.7519      61166.794      39.400818      1.212294     
     14000   303.31014      4186.0349     -3202.8112      0              1731.4016      1245.7789      61166.794      39.400818      1.212294     
     14100   300.4249       4182.6496     -3211.5284      0              1732.5928      2551.635       61166.794      39.400818      1.212294     
     14200   298.51125      4122.1893     -3191.3039      0              1696.9452      2008.7774      61166.794      39.400818      1.212294     
     14300   295.77509      4131.6562     -3206.2697      0              1715.4041      2314.9481      61166.794      39.400818      1.212294     
     14400   296.15173      4195.2202     -3236.4843      0              1751.2533      254.79963      61166.794      39.400818      1.212294     
     14500   302.75755      4183.2845     -3242.0191      0              1734.293       1352.689       61166.794      39.400818      1.212294     
     14600   302.38134      4203.4034     -3226.3978      0              1762.5367      2882.8703      61166.794      39.400818      1.212294     
     14700   295.87119      4259.7117     -3183.0235      0              1718.6164      2172.1688      61166.794      39.400818      1.212294     
     14800   300.5418       4101.6424     -3253.9439      0              1717.8568      1301.2986      61166.794      39.400818      1.212294     
     14900   303.13717      4006.6152     -3248.2581      0              1745.9088      2630.3675      61166.794      39.400818      1.212294     
     15000   300.22682      4074.6855     -3292.6278      0              1757.0711      487.32842      61166.794      39.400818      1.212294     
     15100   298.76852      4122.8103     -3244.6501      0              1700.8147      3266.4608      61166.794      39.400818      1.212294     
     15200   300.41317      4161.2721     -3292.2867      0              1702.5776      418.89988      61166.794      39.400818      1.212294     
     15300   305.14961      4127.7035     -3214.8157      0              1700.4803      1433.0561      61166.794      39.400818      1.212294     
     15400   304.32557      4095.0713     -3186.1328      0              1684.0849      3051.2653      61166.794      39.400818      1.212294     
     15500   296.67577      4161.8485     -3243.0138      0              1720.6852      2402.23        61166.794      39.400818      1.212294     
     15600   296.68681      4155.3926     -3234.0192      0              1713.8674      1578.6448      61166.794      39.400818      1.212294     
     15700   301.98242      4132.7516     -3267.2898      0              1723.4819      1637.9616      61166.794      39.400818      1.212294     
     15800   302.29231      4191.6929     -3243.1227      0              1708.6728      2161.713       61166.794      39.400818      1.212294     
     15900   303.26825      4151.6763     -3218.4204      0              1699.4329      2490.9074      61166.794      39.400818      1.212294     
     16000   302.29819      4064.5973     -3234.6006      0              1705.0419      2157.5726      61166.794      39.400818      1.212294     
     16100   299.00059      4041.7187     -3278.6462      0              1701.0871      2070.0226      61166.794      39.400818      1.212294     
     16200   298.72845      4058.0322     -3278.5899      0              1721.665       1844.7007      61166.794      39.400818      1.212294     
     16300   297.70174      4167.1329     -3227.3531      0              1699.4472      1274.5944      61166.794      39.400818      1.212294     
     16400   303.17001      4188.9215     -3234.8237      0              1717.4379      2667.0874      61166.794      39.400818      1.212294     
     16500   302.04789      4241.3672     -3244.5868      0              1709.9691      1648.6953      61166.794      39.400818      1.212294     
     16600   298.28321      4214.323      -3216.1268      0              1682.1442      2158.0386      61166.794      39.400818      1.212294     
     16700   299.92548      4035.6993     -3265.8112      0              1662.6457      1482.943       61166.794      39.400818      1.212294     
     16800   292.12951      4134.3664     -3278.1446      0              1717.5516     -565.93025      61166.794      39.400818      1.212294     
     16900   296.27538      4141.731      -3231.2224      0              1702.1988      683.47391      61166.794      39.400818      1.212294     
     17000   298.95278      4237.4198     -3205.246       0              1697.1826      1742.3506      61166.794      39.400818      1.212294     
     17100   302.3252       4260.8992     -3239.6853      0              1704.1397      1981.2448      61166.794      39.400818      1.212294     
     17200   300.93276      4219.6229     -3180.3004      0              1682.048       2869.1293      61166.794      39.400818      1.212294     
     17300   302.42274      4080.6695     -3195.5734      0              1669.2909      1625.6066      61166.794      39.400818      1.212294     
     17400   296.36674      4087.2323     -3233.5017      0              1684.256       1679.5961      61166.794      39.400818      1.212294     
     17500   298.98015      4055.4291     -3245.633       0              1662.5323      2025.9892      61166.794      39.400818      1.212294     
     17600   301.70849      4104.9211     -3236.611       0              1694.6547      1259.1422      61166.794      39.400818      1.212294     
     17700   302.64682      4163.7572     -3245.3423      0              1703.7143      2229.7242      61166.794      39.400818      1.212294     
     17800   300.95866      4201.4768     -3225.3423      0              1697.8651      3057.752       61166.794      39.400818      1.212294     
     17900   300.2677       4145.8219     -3212.6684      0              1683.4222      1707.6662      61166.794      39.400818      1.212294     
     18000   298.77078      4103.22       -3278.7863      0              1670.4617      2128.7631      61166.794      39.400818      1.212294     
     18100   297.08386      4115.3267     -3277.5675      0              1666.097       1430.246       61166.794      39.400818      1.212294     
     18200   300.23491      4091.3499     -3261.3128      0              1700.5019      1679.581       61166.794      39.400818      1.212294     
     18300   299.81437      4163.9853     -3246.8523      0              1678.6541      1967.4046      61166.794      39.400818      1.212294     
     18400   303.09389      4144.3384     -3266.2672      0              1676.5327      2307.4384      61166.794      39.400818      1.212294     
     18500   303.14727      4102.6179     -3279.223       0              1673.42        1174.7332      61166.794      39.400818      1.212294     
     18600   299.9734       4081.8213     -3230.3837      0              1656.9928      2472.803       61166.794      39.400818      1.212294     
     18700   300.34196      4018.4376     -3289.1886      0              1663.587       619.08113      61166.794      39.400818      1.212294     
     18800   298.91578      4074.3401     -3238.7456      0              1646.2319      1389.9625      61166.794      39.400818      1.212294     
     18900   299.14062      4138.7399     -3284.0236      0              1648.9458      1695.8148      61166.794      39.400818      1.212294     
     19000   298.08304      4199.631      -3257.9369      0              1668.1531      945.41244      61166.794      39.400818      1.212294     
     19100   300.87995      4148.2292     -3307.3543      0              1710.3937      700.28431      61166.794      39.400818      1.212294     
     19200   299.98431      4133.2872     -3279.3238      0              1660.3113      2404.3224      61166.794      39.400818      1.212294     
     19300   300.35528      4080.1155     -3274.5744      0              1666.8663      1508.1943      61166.794      39.400818      1.212294     
     19400   294.49557      4170.6031     -3276.8818      0              1671.9419      1490.7755      61166.794      39.400818      1.212294     
     19500   299.32001      4118.5838     -3276.2219      0              1674.4134      1569.4942      61166.794      39.400818      1.212294     
     19600   299.30503      4183.0182     -3239.0732      0              1666.7396      3318.7866      61166.794      39.400818      1.212294     
     19700   299.45479      4172.0897     -3308.7008      0              1664.8434      1743.9457      61166.794      39.400818      1.212294     
     19800   300.57146      4062.132      -3261.8324      0              1686.4263      1687.2368      61166.794      39.400818      1.212294     
     19900   297.11841      4064.0598     -3240.7352      0              1678.6939      592.07682      61166.794      39.400818      1.212294     
     20000   296.15397      4096.3375     -3261.7286      0              1656.5219      1580.3394      61166.794      39.400818      1.212294     
     20100   299.57387      4116.2938     -3280.2602      0              1664.2533      956.30438      61166.794      39.400818      1.212294     
     20200   300.3257       4161.5111     -3234.0616      0              1650.1762      910.86548      61166.794      39.400818      1.212294     
     20300   299.24149      4138.4971     -3230.0539      0              1665.1444      462.18763      61166.794      39.400818      1.212294     
     20400   298.77069      4064.7768     -3277.4006      0              1661.4427      1795.8019      61166.794      39.400818      1.212294     
     20500   301.93948      4009.5491     -3295.5535      0              1645.384       2655.6122      61166.794      39.400818      1.212294     
     20600   299.57127      4150.588      -3264.3011      0              1677.1387      2812.3379      61166.794      39.400818      1.212294     
     20700   298.08764      4254.0449     -3263.8468      0              1691.7851      2327.78        61166.794      39.400818      1.212294     
     20800   299.8966       4175.1295     -3310.1275      0              1678.0276      2385.9837      61166.794      39.400818      1.212294     
     20900   301.285        4017.6505     -3303.8101      0              1651.8669      1411.8332      61166.794      39.400818      1.212294     
     21000   297.96542      3989.3585     -3303.9883      0              1676.7903      1067.1535      61166.794      39.400818      1.212294     
     21100   296.9848       4058.0408     -3324.6361      0              1700.9427      1668.9127      61166.794      39.400818      1.212294     
     21200   298.58842      4133.8339     -3264.0769      0              1676.2682      501.83666      61166.794      39.400818      1.212294     
     21300   298.81876      4216.2015     -3309.892       0              1687.491       498.60494      61166.794      39.400818      1.212294     
     21400   305.14496      4102.4378     -3269.0192      0              1692.967       816.63264      61166.794      39.400818      1.212294     
     21500   301.3262       4084.5199     -3360.9028      0              1695.1938     -956.67446      61166.794      39.400818      1.212294     
     21600   297.63323      4067.2137     -3309.211       0              1688.4279      1266.288       61166.794      39.400818      1.212294     
     21700   295.36719      4094.9828     -3312.9157      0              1691.5857      2011.4247      61166.794      39.400818      1.212294     
     21800   299.22487      4090.539      -3361.9719      0              1695.4764      809.78451      61166.794      39.400818      1.212294     
     21900   300.71573      4140.4374     -3261.7165      0              1658.073       2272.1144      61166.794      39.400818      1.212294     
     22000   300.45096      4180.1853     -3271.8114      0              1670.1323      1211.925       61166.794      39.400818      1.212294     
     22100   300.80046      4126.2156     -3311.9697      0              1650.6856      857.74199      61166.794      39.400818      1.212294     
     22200   296.33238      4140.5282     -3247.4855      0              1659.0122      2633.8999      61166.794      39.400818      1.212294     
     22300   299.72548      4061.2458     -3311.8021      0              1675.9315      1185.3163      61166.794      39.400818      1.212294     
     22400   298.31219      4131.6014     -3325.1651      0              1678.095       1626.1473      61166.794      39.400818      1.212294     
     22500   301.61275      4135.8087     -3328.8727      0              1670.7005      306.93057      61166.794      39.400818      1.212294     
     22600   298.98025      4188.8322     -3320.7027      0              1667.1762      219.15688      61166.794      39.400818      1.212294     
     22700   300.84274      4087.5529     -3326.0465      0              1677.6361      1754.0712      61166.794      39.400818      1.212294     
     22800   301.56652      4004.0141     -3378.4602      0              1693.7718      339.61122      61166.794      39.400818      1.212294     
     22900   304.43577      3928.4258     -3309.9316      0              1650.3781      1457.6105      61166.794      39.400818      1.212294     
     23000   300.62165      4055.9895     -3324.5667      0              1660.8536      464.56927      61166.794      39.400818      1.212294     
     23100   298.75517      4183.488      -3310.0374      0              1716.5303      576.47165      61166.794      39.400818      1.212294     
     23200   303.60192      4106.2309     -3302.2667      0              1701.7345      1945.0901      61166.794      39.400818      1.212294     
     23300   301.08051      4058.8726     -3276.4427      0              1634.8127      932.13398      61166.794      39.400818      1.212294     
     23400   301.17489      3948.4498     -3341.3424      0              1636.8417      2438.5588      61166.794      39.400818      1.212294     
     23500   297.73984      3982.5671     -3288.879       0              1646.9076      1462.5261      61166.794      39.400818      1.212294     
     23600   298.64725      4085.8403     -3309.8772      0              1686.5766      2477.2495      61166.794      39.400818      1.212294     
     23700   304.76594      4140.106      -3347.8676      0              1657.6392      3431.174       61166.794      39.400818      1.212294     
     23800   308.69534      4120.1726     -3298.4672      0              1683.9459      1041.0677      61166.794      39.400818      1.212294     
     23900   303.71281      4071.2727     -3325.7686      0              1719.8476      1056.3211      61166.794      39.400818      1.212294     
     24000   300.56731      3943.1156     -3388.1843      0              1703.683       1526.22        61166.794      39.400818      1.212294     
     24100   294.19234      4006.8489     -3346.62        0              1683.7276      2118.8267      61166.794      39.400818      1.212294     
     24200   297.26282      4077.9731     -3335.1582      0              1691.2581      1361.219       61166.794      39.400818      1.212294     
     24300   301.213        4196.4882     -3296.4172      0              1629.2716      732.31661      61166.794      39.400818      1.212294     
     24400   304.1852       4202.245      -3312.9406      0              1680.9852      1007.6778      61166.794      39.400818      1.212294     
     24500   301.79889      4149.2644     -3338.4805      0              1664.1285      1324.9428      61166.794      39.400818      1.212294     
     24600   301.2156       3991.4466     -3327.2665      0              1640.2484      1704.4735      61166.794      39.400818      1.212294     
     24700   296.10229      3985.4008     -3303.6089      0              1657.3509      1649.5501      61166.794      39.400818      1.212294     
     24800   292.97525      4114.3448     -3338.7378      0              1646.1306      951.76653      61166.794      39.400818      1.212294     
     24900   298.80242      4203.6058     -3338.4964      0              1690.4469      1478.29        61166.794      39.400818      1.212294     
     25000   304.7169       4230.0464     -3340.5401      0              1653.5981      1079.2735      61166.794      39.400818      1.212294     
     25100   305.0718       4164.2237     -3306.6231      0              1653.0585      258.55233      61166.794      39.400818      1.212294     
     25200   297.63872      4109.4426     -3314.7094      0              1662.2311      1403.4766      61166.794      39.400818      1.212294     
     25300   293.15658      4028.946      -3363.4891      0              1644.5631      1805.9206      61166.794      39.400818      1.212294     
     25400   296.12506      3999.93       -3364.9166      0              1647.2567      1713.0392      61166.794      39.400818      1.212294     
     25500   302.22396      4067.7517     -3304.6805      0              1626.9967      1318.9504      61166.794      39.400818      1.212294     
     25600   305.85913      4136.6018     -3364.3818      0              1638.3642      1709.9007      61166.794      39.400818      1.212294     
     25700   303.09297      4186.5508     -3287.0491      0              1627.3896      1623.9495      61166.794      39.400818      1.212294     
     25800   297.70578      4142.2184     -3320.1345      0              1645.9626     -111.85275      61166.794      39.400818      1.212294     
     25900   295.68366      4045.5807     -3335.0619      0              1625.3184      1114.3837      61166.794      39.400818      1.212294     
     26000   292.89183      4061.732      -3326.9839      0              1646.9328      1116.8511      61166.794      39.400818      1.212294     
     26100   298.19279      4069.8676     -3315.6609      0              1657.0327      2360.3879      61166.794      39.400818      1.212294     
     26200   301.23232      4183.5894     -3320.7962      0              1669.9381      989.92177      61166.794      39.400818      1.212294     
     26300   302.50919      4231.7248     -3356.3277      0              1668.2434      1527.8112      61166.794      39.400818      1.212294     
     26400   305.88772      4087.8124     -3322.9165      0              1649.9466      1394.1924      61166.794      39.400818      1.212294     
     26500   299.66525      4051.1896     -3303.0282      0              1649.1178      475.35546      61166.794      39.400818      1.212294     
     26600   293.14544      4057.346      -3358.3641      0              1675.2232      88.87411       61166.794      39.400818      1.212294     
     26700   296.92464      3996.6958     -3288.7211      0              1647.3012      1201.3794      61166.794      39.400818      1.212294     
     26800   300.67337      4054.4578     -3339.648       0              1643.3197     -66.587818      61166.794      39.400818      1.212294     
     26900   302.21954      4134.1347     -3291.2529      0              1646.9138     -443.49795      61166.794      39.400818      1.212294     
     27000   303.72         4120.1492     -3328.57        0              1637.0277      2235.3143      61166.794      39.400818      1.212294     
     27100   300.38757      4085.4742     -3302.7535      0              1665.5174      550.11809      61166.794      39.400818      1.212294     
     27200   295.47458      4057.9459     -3358.575       0              1655.3316      278.76389      61166.794      39.400818      1.212294     
     27300   298.05079      3987.0159     -3338.0053      0              1642.8097      1141.8511      61166.794      39.400818      1.212294     
     27400   297.73201      4079.9399     -3346.4491      0              1631.0759      256.94245      61166.794      39.400818      1.212294     
     27500   303.50925      4070.4849     -3349.8779      0              1628.5307      635.66806      61166.794      39.400818      1.212294     
     27600   305.81246      4043.927      -3325.651       0              1637.3011      800.9923       61166.794      39.400818      1.212294     
     27700   297.80784      4106.0933     -3312.2036      0              1658.6841      294.11081      61166.794      39.400818      1.212294     
     27800   298.85166      3988.6441     -3352.2205      0              1632.7262      1297.0514      61166.794      39.400818      1.212294     
     27900   296.21258      4010.7904     -3326.2667      0              1622.8406      216.82439      61166.794      39.400818      1.212294     
     28000   298.64699      4049.4965     -3340.1621      0              1620.8889      831.41523      61166.794      39.400818      1.212294     
     28100   302.37542      4104.3998     -3295.4113      0              1639.0367     -6.0778202      61166.794      39.400818      1.212294     
     28200   302.76944      4159.8498     -3344.9556      0              1675.6935      988.16058      61166.794      39.400818      1.212294     
     28300   303.64187      4075.8462     -3336.9654      0              1628.9829     -496.8292       61166.794      39.400818      1.212294     
     28400   299.00328      4032.4133     -3319.8144      0              1618.0809      849.18003      61166.794      39.400818      1.212294     
     28500   299.8028       3929.7047     -3319.9753      0              1619.3812      900.33005      61166.794      39.400818      1.212294     
     28600   297.1476       4005.041      -3335.8664      0              1663.2069      47.753821      61166.794      39.400818      1.212294     
     28700   301.91145      4009.3507     -3311.388       0              1614.027       1664.6731      61166.794      39.400818      1.212294     
     28800   304.59495      4026.5183     -3345.7415      0              1641.4721      1237.0075      61166.794      39.400818      1.212294     
     28900   301.98927      4059.7305     -3340.7798      0              1626.8216      1148.1935      61166.794      39.400818      1.212294     
     29000   298.0779       4068.2561     -3325.1488      0              1606.6581      1490.1538      61166.794      39.400818      1.212294     
     29100   298.54175      3975.3815     -3316.574       0              1587.9377      1169.3173      61166.794      39.400818      1.212294     
     29200   298.57623      3965.6909     -3367.7697      0              1617.9995      484.15094      61166.794      39.400818      1.212294     
     29300   297.84422      4055.9169     -3344.0929      0              1594.2852     -43.375432      61166.794      39.400818      1.212294     
     29400   303.13319      4073.812      -3354.3569      0              1620.5775      738.73707      61166.794      39.400818      1.212294     
     29500   298.86914      4176.7607     -3312.5241      0              1608.3311      2095.8698      61166.794      39.400818      1.212294     
     29600   300.7273       4023.3527     -3371.3606      0              1643.4814      228.53736      61166.794      39.400818      1.212294     
     29700   294.81757      4009.4014     -3322.3969      0              1676           1609.9919      61166.794      39.400818      1.212294     
     29800   300.23884      3940.4633     -3335.4272      0              1635.9921      52.982805      61166.794      39.400818      1.212294     
     29900   300.03054      4059.0531     -3297.45        0              1643.8769      2430.1075      61166.794      39.400818      1.212294     
     30000   303.71148      4083.7367     -3345.5786      0              1613.3253      488.32186      61166.794      39.400818      1.212294     
     30100   300.50187      4084.9905     -3296.2576      0              1626.4971      1049.8509      61166.794      39.400818      1.212294     
     30200   300.10024      3973.9332     -3321.4163      0              1623.2579      1201.9924      61166.794      39.400818      1.212294     
     30300   299.02021      3934.0504     -3352.8733      0              1616.5196     -352.92972      61166.794      39.400818      1.212294     
     30400   300.45563      3972.0713     -3336.2297      0              1611.8764      532.60962      61166.794      39.400818      1.212294     
     30500   305.07359      4020.7017     -3345.0537      0              1611.7198      992.94787      61166.794      39.400818      1.212294     
     30600   303.07098      4083.4984     -3334.9677      0              1610.4827     -890.05179      61166.794      39.400818      1.212294     
     30700   297.37446      4098.7384     -3297.3881      0              1590.1211      946.68039      61166.794      39.400818      1.212294     
     30800   296.49275      4031.0258     -3323.7269      0              1612.6325      1727.5068      61166.794      39.400818      1.212294     
     30900   299.28671      3963.8183     -3332.1707      0              1604.6174     -285.8099       61166.794      39.400818      1.212294     
     31000   302.17323      3949.4094     -3351.6298      0              1589.8192      1315.8954      61166.794      39.400818      1.212294     
     31100   300.48989      4044.7222     -3317.5178      0              1603.1205      1883.9264      61166.794      39.400818      1.212294     
     31200   302.58995      4055.3349     -3381.0916      0              1645.0303      2572.2202      61166.794      39.400818      1.212294     
     31300   299.46145      4110.9966     -3340.5044      0              1624.5808      731.82483      61166.794      39.400818      1.212294     
     31400   300.8324       4041.1344     -3347.3319      0              1622.3436      104.56389      61166.794      39.400818      1.212294     
     31500   296.66455      4060.4979     -3301.3766      0              1634.8509      1720.3278      61166.794      39.400818      1.212294     
     31600   297.4256       4022.8673     -3307.289       0              1612.4053      75.224747      61166.794      39.400818      1.212294     
     31700   297.56997      4056.8474     -3303.1319      0              1578.8242      522.19164      61166.794      39.400818      1.212294     
     31800   299.8031       4032.5254     -3361.2742      0              1618.6305      751.51449      61166.794      39.400818      1.212294     
     31900   301.3585       4019.6283     -3408.7759      0              1650.5828      449.2618       61166.794      39.400818      1.212294     
     32000   304.58288      3982.4889     -3367.6337      0              1638.5561     -220.97648      61166.794      39.400818      1.212294     
     32100   302.3375       4044.1481     -3327.7053      0              1610.7018      1790.0179      61166.794      39.400818      1.212294     
     32200   297.72028      4079.9416     -3357.2427      0              1604.9414      1225.904       61166.794      39.400818      1.212294     
     32300   298.98523      3985.1094     -3346.6101      0              1621.8942     -415.34408      61166.794      39.400818      1.212294     
     32400   296.81167      4004.2325     -3326.4257      0              1598.0587      1377.7484      61166.794      39.400818      1.212294     
     32500   299.93529      3980.8561     -3308.2753      0              1587.1959      688.75441      61166.794      39.400818      1.212294     
     32600   301.20743      4034.5066     -3362.0942      0              1641.3735      2135.9535      61166.794      39.400818      1.212294     
     32700   300.26359      4110.1146     -3330.873       0              1589.1911      1116.7154      61166.794      39.400818      1.212294     
     32800   298.97098      4103.8158     -3326.6932      0              1631.8535      629.23468      61166.794      39.400818      1.212294     
     32900   299.98387      4000.6851     -3369.5372      0              1593.4926      519.08516      61166.794      39.400818      1.212294     
     33000   300.02948      3958.7692     -3345.5596      0              1611.909       2455.6381      61166.794      39.400818      1.212294     
     33100   298.13928      4028.8368     -3303.7161      0              1624.3611      1226.5645      61166.794      39.400818      1.212294     
     33200   301.35548      4049.9842     -3320.3827      0              1622.0644      801.42834      61166.794      39.400818      1.212294     
     33300   299.76164      4113.1729     -3330.6227      0              1640.5476      680.79568      61166.794      39.400818      1.212294     
     33400   303.98954      4004.051      -3413.4991      0              1651.1615      904.80334      61166.794      39.400818      1.212294     
     33500   298.57327      4012.9501     -3355.0158      0              1601.054       1581.8156      61166.794      39.400818      1.212294     
     33600   298.83906      3939.0032     -3326.6079      0              1588.0851      1430.7538      61166.794      39.400818      1.212294     
     33700   300.48414      3947.867      -3352.0037      0              1612.4507      106.57115      61166.794      39.400818      1.212294     
     33800   300.94061      4039.0673     -3345.2068      0              1628.8534      735.30906      61166.794      39.400818      1.212294     
     33900   297.30107      4161.1792     -3351.8613      0              1635.2601      1066.5669      61166.794      39.400818      1.212294     
     34000   302.36264      4022.3729     -3342.5182      0              1630.5115      2300.5658      61166.794      39.400818      1.212294     
     34100   297.83986      4007.1713     -3354.8738      0              1611.6415      435.14066      61166.794      39.400818      1.212294     
     34200   297.75643      3963.5898     -3335.4578      0              1633.9151      1620.1256      61166.794      39.400818      1.212294     
     34300   300.16192      3976.5894     -3344.1735      0              1589.4303      1205.0259      61166.794      39.400818      1.212294     
     34400   296.75778      4124.9247     -3341.7276      0              1591.0027      1000.4125      61166.794      39.400818      1.212294     
     34500   302.58162      4047.6667     -3303.6683      0              1596.2789      1587.2422      61166.794      39.400818      1.212294     
     34600   300.71646      4063.7335     -3316.1346      0              1588.0042      1761.0857      61166.794      39.400818      1.212294     
     34700   296.41598      4046.5284     -3340.5696      0              1601.5097      82.922205      61166.794      39.400818      1.212294     
     34800   298.10365      3969.4312     -3324.6889      0              1631.8952      817.54145      61166.794      39.400818      1.212294     
     34900   297.84573      4014.6048     -3358.669       0              1617.1115     -434.85236      61166.794      39.400818      1.212294     
     35000   302.8143       4004.1282     -3361.336       0              1634.3174      1315.2781      61166.794      39.400818      1.212294     
     35100   302.83567      4041.6405     -3344.3256      0              1637.0663      258.26497      61166.794      39.400818      1.212294     
     35200   303.55535      4014.7042     -3371.7947      0              1621.6011      1358.5534      61166.794      39.400818      1.212294     
     35300   300.78393      3983.18       -3353.5376      0              1605.4094      511.86173      61166.794      39.400818      1.212294     
     35400   297.8713       3956.7478     -3387.3053      0              1629.5263      1261.3235      61166.794      39.400818      1.212294     
     35500   297.5309       3967.7183     -3340.7262      0              1610.4668      1163.8173      61166.794      39.400818      1.212294     
     35600   297.31352      4074.7194     -3351.8668      0              1599.2623     -364.91514      61166.794      39.400818      1.212294     
     35700   304.52978      4026.2358     -3380.564       0              1619.0212      1688.8062      61166.794      39.400818      1.212294     
     35800   302.49682      4087.9371     -3331.3657      0              1634.1492      393.60034      61166.794      39.400818      1.212294     
     35900   299.77728      4065.0506     -3327.2507      0              1613.3475      161.30761      61166.794      39.400818      1.212294     
     36000   297.36569      3993.062      -3378.182       0              1597.5522     -227.38592      61166.794      39.400818      1.212294     
     36100   297.36037      3956.0488     -3337.213       0              1588.3107      1008.7366      61166.794      39.400818      1.212294     
     36200   299.08261      4008.5116     -3317.3257      0              1613.0144      1220.267       61166.794      39.400818      1.212294     
     36300   304.78479      4046.5126     -3354.1263      0              1584.6852     -697.69086      61166.794      39.400818      1.212294     
     36400   300.95546      4169.0091     -3351.1961      0              1623.9715      580.70758      61166.794      39.400818      1.212294     
     36500   298.47579      4108.1409     -3342.8421      0              1657.3653      1386.4983      61166.794      39.400818      1.212294     
     36600   298.11538      3970.1937     -3387.8829      0              1624.3592     -150.82544      61166.794      39.400818      1.212294     
     36700   294.61767      3994.253      -3356.4174      0              1612.8565      1951.4731      61166.794      39.400818      1.212294     
     36800   299.74082      3981.5915     -3368.7552      0              1620.8062      728.98652      61166.794      39.400818      1.212294     
     36900   303.61224      4006.7963     -3335.708       0              1618.155       488.95211      61166.794      39.400818      1.212294     
     37000   301.06909      4096.0796     -3300.6448      0              1648.177       2719.9757      61166.794      39.400818      1.212294     
     37100   300.74958      4085.1304     -3349.9252      0              1640.8622      1611.0968      61166.794      39.400818      1.212294     
     37200   302.04359      3999.388      -3325.2669      0              1613.0486      1444.3054      61166.794      39.400818      1.212294     
     37300   298.82787      3972.7111     -3310.0942      0              1577.1437      1757.3635      61166.794      39.400818      1.212294     
     37400   296.62328      3997.1515     -3348.6087      0              1602.1021     -595.8092       61166.794      39.400818      1.212294     
     37500   299.16744      4017.1297     -3331.6122      0              1591.6762      896.96163      61166.794      39.400818      1.212294     
     37600   302.56047      4023.8853     -3329.4721      0              1593.3467      63.697094      61166.794      39.400818      1.212294     
     37700   298.23889      4102.4337     -3368.1241      0              1591.7698      866.25872      61166.794      39.400818      1.212294     
     37800   301.42288      3995.3084     -3342.3367      0              1595.6497     -113.56568      61166.794      39.400818      1.212294     
     37900   298.80919      4020.2667     -3329.0094      0              1583.4904      1436.241       61166.794      39.400818      1.212294     
     38000   301.5722       3966.7281     -3346.6764      0              1597.0013      1104.671       61166.794      39.400818      1.212294     
     38100   300.39363      4006.1776     -3323.6683      0              1571.6658      437.52093      61166.794      39.400818      1.212294     
     38200   301.21025      3990.5651     -3302.1253      0              1591.9045     -228.05766      61166.794      39.400818      1.212294     
     38300   301.91037      3972.5301     -3377.8278      0              1559.4733     -857.66783      61166.794      39.400818      1.212294     
     38400   297.57908      4074.7889     -3311.6799      0              1580.7553     -258.29599      61166.794      39.400818      1.212294     
     38500   301.11052      4046.5281     -3357.3924      0              1566.5174     -1035.4088      61166.794      39.400818      1.212294     
     38600   301.878        4027.9818     -3363.1947      0              1589.0474      390.9229       61166.794      39.400818      1.212294     
     38700   298.76654      4041.3724     -3347.7202      0              1591.8875      1472.1205      61166.794      39.400818      1.212294     
     38800   298.9484       4010.7866     -3377.9499      0              1604.4642     -868.35993      61166.794      39.400818      1.212294     
     38900   301.51333      3968.2198     -3330.9344      0              1590.0026     -706.10501      61166.794      39.400818      1.212294     
     39000   306.02967      3937.4533     -3374.9313      0              1580.8632      43.994215      61166.794      39.400818      1.212294     
     39100   301.44833      4062.9016     -3365.396       0              1592.7754     -509.89863      61166.794      39.400818      1.212294     
     39200   296.18175      4119.3667     -3319.3089      0              1594.0085      1492.2609      61166.794      39.400818      1.212294     
     39300   294.5946       4098.9393     -3339.2068      0              1580.6944     -205.79809      61166.794      39.400818      1.212294     
     39400   299.21407      3975.7115     -3301.2925      0              1580.9931      529.83288      61166.794      39.400818      1.212294     
     39500   299.99481      3976.4654     -3329.4985      0              1602.2726      511.18732      61166.794      39.400818      1.212294     
     39600   303.75938      3974.3561     -3333.4327      0              1579.9789      1796.6419      61166.794      39.400818      1.212294     
     39700   295.28103      4159.4532     -3306.9442      0              1591.0577      1626.3963      61166.794      39.400818      1.212294     
     39800   299.42103      4075.4546     -3357.8018      0              1603.1051      1316.6057      61166.794      39.400818      1.212294     
     39900   299.24941      4046.4708     -3373.6154      0              1583.2593      984.55508      61166.794      39.400818      1.212294     
     40000   303.42054      3943.1062     -3354.7976      0              1576.1607      1389.9696      61166.794      39.400818      1.212294     
     40100   300.98401      3969.5076     -3376.6137      0              1589.7336      9.4649141      61166.794      39.400818      1.212294     
     40200   299.16187      4012.4717     -3381.6934      0              1599.5988      1328.0557      61166.794      39.400818      1.212294     
     40300   296.97276      4085.3591     -3354.7516      0              1557.3923      690.65452      61166.794      39.400818      1.212294     
     40400   295.69392      4102.6807     -3362.2115      0              1578.9522     -253.8875       61166.794      39.400818      1.212294     
     40500   302.04377      3959.6611     -3375.6445      0              1582.9231      1017.743       61166.794      39.400818      1.212294     
     40600   297.93882      4020.3174     -3314.0392      0              1580.9294      1678.2164      61166.794      39.400818      1.212294     
     40700   301.52489      3980.8206     -3332.595       0              1572.8658      1473.8733      61166.794      39.400818      1.212294     
     40800   301.69228      4046.3701     -3339.6883      0              1593.4545      1461.6463      61166.794      39.400818      1.212294     
     40900   304.40186      4017.6086     -3321.2222      0              1578.0487      500.38808      61166.794      39.400818      1.212294     
     41000   303.4086       4001.7352     -3380.6435      0              1577.4382      2191.355       61166.794      39.400818      1.212294     
     41100   299.50965      3991.4616     -3405.4969      0              1589.2805      392.7781       61166.794      39.400818      1.212294     
     41200   299.2474       3938.0514     -3353.5104      0              1565.4686      718.62707      61166.794      39.400818      1.212294     
     41300   298.21457      3965.6322     -3318.9075      0              1582.1333      678.60482      61166.794      39.400818      1.212294     
     41400   297.07725      4065.1373     -3320.947       0              1606.298       573.46298      61166.794      39.400818      1.212294     
     41500   305.32679      4024.1641     -3355.8716      0              1594.1293      2109.8531      61166.794      39.400818      1.212294     
     41600   304.26158      4082.2142     -3353.7972      0              1598.9416      1311.5899      61166.794      39.400818      1.212294     
     41700   299.34631      4077.0999     -3307.6433      0              1587.8566      692.38059      61166.794      39.400818      1.212294     
     41800   296.03759      4013.6334     -3370.645       0              1564.0834      865.93057      61166.794      39.400818      1.212294     
     41900   295.06594      3973.2633     -3328.8574      0              1582.5457     -181.95895      61166.794      39.400818      1.212294     
     42000   297.65754      3980.4582     -3383.2733      0              1555.3376      397.10981      61166.794      39.400818      1.212294     
     42100   303.37341      4000.1298     -3359.7566      0              1555.7978      1572.5789      61166.794      39.400818      1.212294     
     42200   304.77152      4041.0245     -3354.341       0              1570.1853      976.24882      61166.794      39.400818      1.212294     
     42300   301.6209       4035.9567     -3335.2141      0              1552.309       1415.2034      61166.794      39.400818      1.212294     
     42400   296.75433      4030.5415     -3351.7708      0              1572.5478      776.12226      61166.794      39.400818      1.212294     
     42500   298.22033      3959.9072     -3344.8468      0              1550.5224      693.44603      61166.794      39.400818      1.212294     
     42600   294.32828      4099.7059     -3326.4103      0              1567.1627      1050.6273      61166.794      39.400818      1.212294     
     42700   300.80413      4060.0508     -3369.5903      0              1604.6293      1168.8915      61166.794      39.400818      1.212294     
     42800   304.16677      4007.7375     -3359.5225      0              1588.2473      883.38324      61166.794      39.400818      1.212294     
     42900   300.68839      4035.7663     -3332.4631      0              1585.4863      1279.0321      61166.794      39.400818      1.212294     
     43000   301.90177      3971.7059     -3360.4884      0              1579.7656      1849.6047      61166.794      39.400818      1.212294     
     43100   299.19483      4000.8007     -3340.7199      0              1594.2936      1628.2868      61166.794      39.400818      1.212294     
     43200   299.39041      4013.4339     -3365.5863      0              1569.3995      1340.5667      61166.794      39.400818      1.212294     
     43300   297.20722      4074.8898     -3319.3629      0              1610.9435      1043.6016      61166.794      39.400818      1.212294     
     43400   303.68632      3974.5555     -3365.2132      0              1557.8565      1624.154       61166.794      39.400818      1.212294     
     43500   300.0893       4027.9834     -3364.9734      0              1598.2428      1818.3321      61166.794      39.400818      1.212294     
     43600   297.86947      4043.3718     -3375.9408      0              1604.6748      753.17187      61166.794      39.400818      1.212294     
     43700   296.41658      4074.4737     -3328.8451      0              1627.9881      1515.1697      61166.794      39.400818      1.212294     
     43800   300.85065      4044.2387     -3368.7149      0              1627.0808      1414.7949      61166.794      39.400818      1.212294     
     43900   297.90145      4139.767      -3365.1386      0              1627.3897      502.82883      61166.794      39.400818      1.212294     
     44000   304.91613      4018.1821     -3307.071       0              1620.2041      2379.0827      61166.794      39.400818      1.212294     
     44100   305.74266      3958.7946     -3369.4057      0              1594.8489      1978.7156      61166.794      39.400818      1.212294     
     44200   295.90341      4055.3765     -3339.2554      0              1604.4011      862.54471      61166.794      39.400818      1.212294     
     44300   296.25757      4003.1929     -3343.2219      0              1583.611       1439.2648      61166.794      39.400818      1.212294     
     44400   302.35588      3928.7911     -3363.2169      0              1594.0319      19.575002      61166.794      39.400818      1.212294     
     44500   300.72114      4035.6853     -3371.9328      0              1612.1542      548.99627      61166.794      39.400818      1.212294     
     44600   300.28212      4090.2789     -3307.2736      0              1643.0014      350.52809      61166.794      39.400818      1.212294     
     44700   300.22338      4084.7531     -3369.6364      0              1622.1053      59.030272      61166.794      39.400818      1.212294     
     44800   296.97935      4063.986      -3346.1427      0              1617.3308      1.8231635      61166.794      39.400818      1.212294     
     44900   299.34878      3925.5035     -3374.42        0              1596.2644      321.80357      61166.794      39.400818      1.212294     
     45000   297.22199      3972.1075     -3362.4461      0              1594.4621      400.43241      61166.794      39.400818      1.212294     
     45100   298.55178      4037.2741     -3351.538       0              1602.5423     -457.89256      61166.794      39.400818      1.212294     
     45200   303.40907      4020.5729     -3322.7256      0              1576.5768      1512.8118      61166.794      39.400818      1.212294     
     45300   301.35845      4076.8245     -3316.2251      0              1568.6685      241.20651      61166.794      39.400818      1.212294     
     45400   300.3535       4030.8873     -3329.9472      0              1582.1946      557.74359      61166.794      39.400818      1.212294     
     45500   294.47581      4074.6012     -3300.3437      0              1588.1886     -431.37224      61166.794      39.400818      1.212294     
     45600   293.87293      4031.8961     -3339.8351      0              1577.64       -1659.7267      61166.794      39.400818      1.212294     
     45700   298.40206      3961.273      -3334.9123      0              1596.2676      2157.557       61166.794      39.400818      1.212294     
     45800   298.10713      4063.794      -3338.5813      0              1628.1148      236.99302      61166.794      39.400818      1.212294     
     45900   301.29555      4080.8983     -3365.4442      0              1626.1546      1672.9146      61166.794      39.400818      1.212294     
     46000   299.87151      4081.8856     -3372.2342      0              1588.2628      1312.3911      61166.794      39.400818      1.212294     
     46100   298.95791      3989.9705     -3378.4312      0              1599.1839      1231.6266      61166.794      39.400818      1.212294     
     46200   296.61592      3976.8152     -3380.6831      0              1614.1814     -35.733483      61166.794      39.400818      1.212294     
     46300   299.37662      3964.817      -3395.3678      0              1638.3616     -411.97544      61166.794      39.400818      1.212294     
     46400   303.32595      3989.0744     -3359.6995      0              1597.0598      1094.125       61166.794      39.400818      1.212294     
     46500   300.96905      4107.181      -3322.6694      0              1601.1454      1384.0646      61166.794      39.400818      1.212294     
     46600   304.14004      4030.2105     -3370.9259      0              1588.6288      1697.3647      61166.794      39.400818      1.212294     
     46700   299.07281      4008.8235     -3335.4215      0              1601.0414      1022.4963      61166.794      39.400818      1.212294     
     46800   296.03972      3958.3658     -3329.7988      0              1604.6075      1262.0914      61166.794      39.400818      1.212294     
     46900   296.22662      3973.0998     -3348.54        0              1599.0896      475.12321      61166.794      39.400818      1.212294     
     47000   304.04687      3946.3252     -3353.1918      0              1587.1945      1104.361       61166.794      39.400818      1.212294     
     47100   303.21015      4055.5296     -3296.8108      0              1590.1539      1727.0028      61166.794      39.400818      1.212294     
     47200   302.26257      4050.9763     -3339.6763      0              1595.6078      1588.123       61166.794      39.400818      1.212294     
     47300   296.04453      4055.5268     -3324.0953      0              1585.6484      2074.2509      61166.794      39.400818      1.212294     
     47400   299.06357      3899.0419     -3361.0346      0              1576.8508     -1083.4863      61166.794      39.400818      1.212294     
     47500   298.01575      3916.1151     -3353.0212      0              1559.4664     -497.06549      61166.794      39.400818      1.212294     
     47600   302.47862      3927.2369     -3354.9933      0              1594.3938      297.33651      61166.794      39.400818      1.212294     
     47700   301.04714      4080.7114     -3285.3992      0              1594.4763      308.67591      61166.794      39.400818      1.212294     
     47800   299.88418      4140.5121     -3338.4204      0              1601.3293      188.27031      61166.794      39.400818      1.212294     
     47900   300.54679      4053.6387     -3368.0795      0              1573.666      -520.32325      61166.794      39.400818      1.212294     
     48000   302.80719      3892.101      -3295.9964      0              1566.5001     -117.63003      61166.794      39.400818      1.212294     
     48100   297.40677      3903.9472     -3361.9843      0              1566.1438      856.6037       61166.794      39.400818      1.212294     
     48200   293.93986      3992.0217     -3381.6         0              1582.6144     -34.342614      61166.794      39.400818      1.212294     
     48300   299.64591      3992.4524     -3359.7068      0              1594.2082      1662.6293      61166.794      39.400818      1.212294     
     48400   303.26714      3990.1697     -3345.8011      0              1573.2222      1437.2773      61166.794      39.400818      1.212294     
     48500   305.03156      3957.9539     -3342.6336      0              1586.8331      727.36173      61166.794      39.400818      1.212294     
     48600   299.17647      4035.57       -3341.0277      0              1577.6975      1264.5509      61166.794      39.400818      1.212294     
     48700   300.64197      3942.064      -3326.0126      0              1556.072       1282.353       61166.794      39.400818      1.212294     
     48800   296.78995      3959.0759     -3368.931       0              1571.0154      1001.9835      61166.794      39.400818      1.212294     
     48900   298.06677      3972.5224     -3378.0096      0              1595.8304      229.16395      61166.794      39.400818      1.212294     
     49000   298.98285      4053.2524     -3347.8588      0              1597.1541      1332.264       61166.794      39.400818      1.212294     
     49100   301.74785      4048.7493     -3355.6487      0              1593.2379     -115.3365       61166.794      39.400818      1.212294     
     49200   304.891        3943.42       -3401.7634      0              1627.353       872.31969      61166.794      39.400818      1.212294     
     49300   298.57895      3971.0653     -3386.0828      0              1626.6869      1597.2013      61166.794      39.400818      1.212294     
     49400   296.05137      3985.7924     -3308.141       0              1613.2603      1750.9545      61166.794      39.400818      1.212294     
     49500   299.30361      3964.4235     -3346.5338      0              1594.4489      1583.9332      61166.794      39.400818      1.212294     
     49600   300.79032      4016.48       -3331.8755      0              1618.9719     -913.75757      61166.794      39.400818      1.212294     
     49700   300.28553      4085.7843     -3398.9036      0              1623.5216      492.65855      61166.794      39.400818      1.212294     
     49800   302.31299      4039.0914     -3347.1784      0              1600.1342      1861.4276      61166.794      39.400818      1.212294     
     49900   300.21293      3994.117      -3353.2814      0              1631.5587      498.87718      61166.794      39.400818      1.212294     
     50000   296.7926       3976.1785     -3356.9608      0              1605.0493      1255.4446      61166.794      39.400818      1.212294     
     50100   295.96439      3987.15       -3370.2473      0              1607.1578      324.76275      61166.794      39.400818      1.212294     
     50200   301.83164      3950.8518     -3341.2452      0              1594.781       1369.4542      61166.794      39.400818      1.212294     
     50300   301.09293      4028.333      -3348.2035      0              1618.1065     -168.43364      61166.794      39.400818      1.212294     
     50400   304.67973      3959.6962     -3364.722       0              1604.1624      658.12178      61166.794      39.400818      1.212294     
     50500   296.95416      4053.1806     -3381.9736      0              1611.7615     -142.88971      61166.794      39.400818      1.212294     
     50600   298.59886      3964.1074     -3382.3882      0              1611.2968      759.85675      61166.794      39.400818      1.212294     
     50700   300.21093      3919.4585     -3340.871       0              1599.6024      1093.8338      61166.794      39.400818      1.212294     
     50800   303.45058      3895.9399     -3390.1347      0              1615.4835     -235.53168      61166.794      39.400818      1.212294     
     50900   302.71623      3964.8988     -3355.4335      0              1631.693       455.85257      61166.794      39.400818      1.212294     
     51000   303.15775      4008.5099     -3346.0282      0              1626.3365     -596.18496      61166.794      39.400818      1.212294     
[...]
    640200   299.85505      3626.7154     -3478.7147      0              1471.3127      1232.6412      61002.173      39.365439      1.2155655    
    640300   296.10629      3759.7196     -3425.527       0              1500.3618     -883.4951       61380.566      39.446665      1.2080719    
    640400   302.34017      3711.3883     -3414.3447      0              1477.4939      138.74527      61552.02       39.48336       1.2047068    
    640500   300.68652      3785.8496     -3433.992       0              1468.0964     -317.0612       61525.693      39.47773       1.2052223    
    640600   303.54066      3691.21       -3426.6991      0              1462.0096      1080.7428      61396.623      39.450105      1.207756     
    640700   300.93556      3593.3769     -3488.643       0              1465.2221     -771.78295      61591.544      39.491809      1.2039338    
    640800   298.06918      3637.0331     -3442.9296      0              1455.6697      105.56471      61339.406      39.437846      1.2088826    
    640900   298.54264      3705.5084     -3414.197       0              1458.5458      656.34829      61428.719      39.456978      1.2071249    
    641000   302.15245      3733.9993     -3436.7056      0              1461.2682      423.52505      61714.653      39.518104      1.2015322    
    641100   304.79922      3702.8576     -3433.8376      0              1482.6474     -308.08438      61512.475      39.474903      1.2054813    
    641200   295.45207      3688.121      -3433.9326      0              1481.4436     -1391.987       61625.051      39.498969      1.2032792    
    641300   300.42042      3555.6071     -3463.7322      0              1449.4824     -1747.4293      61508.287      39.474007      1.2055634    
    641400   297.6086       3684.3761     -3459.3621      0              1465.3116      781.26331      61209.142      39.409909      1.2114553    
    641500   303.35149      3668.7675     -3445.1241      0              1468.1872     -1046.5273      61734.968      39.522439      1.2011368    
    641600   300.38724      3750.9298     -3415.5824      0              1500.5938      1872.9844      61360.348      39.442334      1.20847      
    641700   301.38082      3619.8456     -3451.9085      0              1438.8882     -1246.9165      61408.96       39.452747      1.2075134    
    641800   296.13467      3607.513      -3438.4138      0              1452.0273      1078.5439      61436.894      39.458728      1.2069643    
    641900   300.19131      3578.0857     -3391.2147      0              1462.1416      973.80523      61405.685      39.452046      1.2075778    
    642000   300.07234      3668.962      -3407.8912      0              1494.371       1847.2887      61526.38       39.477877      1.2052089    
    642100   300.21729      3719.7914     -3408.8966      0              1489.8324      110.19889      61522.588      39.477066      1.2052832    
    642200   299.15562      3736.834      -3426.623       0              1492.6256     -286.15858      61377.082      39.445919      1.2081405    
    642300   300.62232      3686.0537     -3433.5436      0              1471.4927      742.24246      61380.928      39.446743      1.2080648    
    642400   298.66918      3695.6654     -3410.3715      0              1435.9134      1042.083       61211.439      39.410402      1.2114098    
    642500   299.65188      3665.1542     -3446.6383      0              1478.7364      266.62037      61189.288      39.405647      1.2118484    
    642600   296.43514      3712.4063     -3427.2431      0              1468.3912     -709.78668      61293.42       39.427988      1.2097896    
    642700   298.25283      3655.3002     -3453.7133      0              1492.5391     -509.73324      61120.42       39.390858      1.2132138    
    642800   298.49434      3646.1522     -3444.1237      0              1510.7219     -942.23455      61134.745      39.393935      1.2129296    
    642900   302.11602      3646.9616     -3452.5008      0              1484.3834      508.22659      61453.344      39.46225       1.2066412    
    643000   300.2556       3760.3731     -3418.8075      0              1485.4116      70.852928      61410.686      39.453117      1.2074794    
    643100   305.95824      3670.3887     -3412.1591      0              1468.728       455.09947      61338.958      39.43775       1.2088914    
    643200   297.96457      3715.0669     -3405.0761      0              1469.0915      367.51585      61631.265      39.500297      1.2031578    
    643300   301.97457      3535.241      -3411.2856      0              1476.5853      263.36685      61769.446      39.529796      1.2004663    
    643400   299.01334      3607.8135     -3404.2871      0              1440.7125     -22.079731      61721.023      39.519463      1.2014081    
    643500   295.22578      3741.1141     -3454.5888      0              1461.1744     -301.54723      61579.697      39.489277      1.2041654    
    643600   302.49678      3641.8906     -3473.1427      0              1470.173      -363.77904      61161.454      39.399671      1.2123999    
    643700   299.99178      3689.2071     -3472.343       0              1503.797       876.31992      61077.483      39.381632      1.2140667    
    643800   299.20371      3676.4895     -3429.1261      0              1493.7113      447.20311      61263.861      39.421649      1.2103733    
    643900   299.35637      3670.8408     -3457.8351      0              1487.3176     -2243.1282      61524.966      39.477574      1.2052366    
    644000   304.77188      3581.6356     -3465.9029      0              1488.7124      440.93034      61373.337      39.445117      1.2082142    
    644100   299.62053      3743.6951     -3457.3432      0              1496.7738     -952.61673      61448.334      39.461177      1.2067396    
    644200   301.39459      3739.5404     -3481.7131      0              1498.6683      677.08433      60881.416      39.339447      1.2179766    
    644300   302.43528      3638.0799     -3494.6054      0              1470.1171     -894.21622      60934.324      39.350839      1.216919     
    644400   299.00255      3582.0965     -3458.2424      0              1487.675      -89.008044      61211.458      39.410406      1.2114095    
    644500   298.85106      3595.673      -3470.4763      0              1489.1779      1699.9712      61190.626      39.405935      1.2118219    
    644600   298.47394      3681.9359     -3455.6355      0              1501.0155      222.6437       61311.349      39.431832      1.2094358    
    644700   301.49788      3673.2444     -3435.8189      0              1457.1079     -929.25997      61096.688      39.385759      1.2136851    
    644800   305.73694      3576.3005     -3494.3219      0              1480.9523      1762.9267      60917.323      39.347179      1.2172587    
    644900   298.1798       3691.7279     -3436.6368      0              1478.3082      253.56231      61181.844      39.404049      1.2119958    
    645000   297.19915      3647.9851     -3406.354       0              1458.3781      216.22157      61509.825      39.474336      1.2055332    
    645100   296.21566      3579.0897     -3450.1609      0              1467.2436      607.35609      61430.826      39.457429      1.2070835    
    645200   298.57815      3586.4027     -3448.4398      0              1460.0749     -415.70473      61291.131      39.427497      1.2098347    
    645300   301.50708      3675.9638     -3436.8119      0              1485.3192      705.44199      61393.177      39.449367      1.2078238    
    645400   297.50338      3777.7174     -3396.8533      0              1492.1055     -480.41438      61412.384      39.45348       1.207446     
    645500   303.06727      3636.4012     -3456.4701      0              1509.6719      937.38149      60860.59       39.334961      1.2183934    
    645600   298.497        3584.003      -3467.2166      0              1518.3531     -196.96741      61091.125      39.384564      1.2137956    
    645700   297.80026      3555.7363     -3457.5236      0              1486.3518      108.97478      61250.538      39.418791      1.2106365    
    645800   297.21765      3618.9888     -3428.4388      0              1507.0086      412.59148      61023.217      39.369965      1.2151463    
    645900   301.11328      3599.0115     -3495.6117      0              1490.9872      1997.8781      61032.587      39.37198       1.2149598    
    646000   301.68699      3622.9157     -3441.9918      0              1475.3527     -587.4332       61387.85       39.448226      1.2079286    
    646100   301.50168      3660.265      -3449.8297      0              1489.3993     -1270.7171      61490.907      39.470288      1.2059042    
    646200   301.35192      3741.2303     -3448.5281      0              1501.638      -797.66458      61479.371      39.46782       1.2061304    
    646300   301.36144      3761.1796     -3475.1405      0              1496.317       288.51657      61110.128      39.388647      1.2134182    
    646400   298.518        3668.1676     -3460.9547      0              1498.1835     -207.29768      60911.502      39.345926      1.217375     
    646500   295.9402       3654.118      -3465.6422      0              1490.742      -599.17887      60965.034      39.357449      1.2163061    
    646600   297.88308      3635.8918     -3455.2675      0              1513.4934     -921.28976      61020.791      39.369444      1.2151947    
    646700   302.92775      3635.9697     -3430.0517      0              1471.77        1727.622       61108.68       39.388336      1.2134469    
    646800   306.88141      3636.0381     -3411.6105      0              1496.0024      1664.5655      61185.687      39.404874      1.2119197    
    646900   296.72196      3734.9226     -3423.8462      0              1494.0617     -1098.3898      61672.214      39.509043      1.202359     
    647000   296.03244      3623.0701     -3434.2697      0              1481.5316      1454.2308      61608.111      39.49535       1.20361      
    647100   298.75901      3573.7652     -3408.4549      0              1435.3769      668.28493      61521.413      39.476815      1.2053062    
    647200   300.14947      3645.8576     -3443.2147      0              1459.0134      1023.2368      61451.91       39.461943      1.2066694    
    647300   300.43446      3741.2336     -3400.3225      0              1471.0086      138.99238      61710.703      39.517261      1.2016091    
    647400   300.42692      3739.9387     -3433.2797      0              1441.4973     -54.914939      61475.346      39.466959      1.2062094    
    647500   298.26589      3723.8547     -3473.2696      0              1471.3539     -69.471723      61785.807      39.533285      1.2001484    
    647600   302.33512      3595.8099     -3433.281       0              1480.9066      79.972126      61652.624      39.50486       1.202741     
    647700   301.56762      3615.6956     -3461.8037      0              1475.0036     -1341.8239      61562.085      39.485512      1.2045099    
    647800   296.81861      3735.9724     -3431.7777      0              1457.4691      85.189189      61337.913      39.437526      1.208912     
    647900   302.55383      3696.5809     -3449.4699      0              1497.1701      318.8888       61154.232      39.398121      1.2125431    
    648000   301.92773      3726.3671     -3439.603       0              1459.3743      694.46209      61356.043      39.441412      1.2085548    
    648100   300.4958       3637.0059     -3430.1679      0              1490.9998      47.810479      61640.367      39.502241      1.2029802    
    648200   299.24231      3584.617      -3417.2915      0              1497.5212      672.26747      61654.295      39.505216      1.2027084    
    648300   298.52691      3637.5662     -3421.2389      0              1492.6241     -673.04362      61589.384      39.491348      1.203976     
    648400   298.38716      3768.8621     -3430.4798      0              1488.401      -976.75597      61666.892      39.507907      1.2024627    
    648500   305.96832      3658.128      -3451.5723      0              1499.6428      146.99783      61361.145      39.442505      1.2084543    
    648600   303.48654      3641.3897     -3469.9322      0              1508.2421      776.33126      61108.638      39.388327      1.2134478    
    648700   297.9703       3665.7354     -3431.3843      0              1482.9104      141.63219      61319.967      39.43368       1.2092658    
    648800   304.44392      3488.1815     -3466.2693      0              1477.795      -769.55763      61291.856      39.427653      1.2098204    
    648900   296.67739      3610.0573     -3411.47        0              1486.2536      8.8035997      61386.126      39.447856      1.2079625    
    649000   297.29459      3737.8151     -3416.442       0              1513.1881      1247.4382      61289.939      39.427242      1.2098583    
    649100   304.71206      3696.8738     -3432.1123      0              1504.4174      5.7035481      61519.275      39.476357      1.2053481    
    649200   301.42327      3759.4005     -3399.9879      0              1482.8896     -417.10053      61773.02       39.530558      1.2003969    
    649300   299.50014      3695.9448     -3432.5225      0              1470.24       -178.06145      61556.738      39.484369      1.2046145    
    649400   296.87192      3656.8223     -3460.0166      0              1504.686      -12.009849      61270.634      39.423102      1.2102395    
    649500   298.4759       3658.1293     -3451.366       0              1483.3988      532.76496      61394.59       39.449669      1.207796     
    649600   301.65803      3636.7595     -3426.2592      0              1489.5102     -1429.3138      61438.309      39.459031      1.2069365    
    649700   299.88335      3687.3395     -3435.3993      0              1499.0429      413.90124      61589.401      39.491351      1.2039756    
    649800   300.56892      3665.5554     -3435.3623      0              1466.5907      1753.7992      61768.828      39.529664      1.2004783    
    649900   302.80482      3627.7941     -3383.6468      0              1476.5709      1517.8976      61734.142      39.522263      1.2011528    
    650000   303.60483      3603.7928     -3416.7724      0              1461.8039     -971.60609      61592.774      39.492072      1.2039097    
    650100   297.76767      3631.2897     -3418.2237      0              1469.3676     -277.32359      61715.426      39.518269      1.2015171    
    650200   297.28576      3514.0184     -3444.9236      0              1509.1528     -968.05439      61720.942      39.519446      1.2014097    
    650300   295.10033      3614.014      -3407.6636      0              1463.4934     -49.845162      61535.846      39.479901      1.2050235    
    650400   301.15091      3653.945      -3387.4544      0              1455.2403      213.80652      61795.781      39.535413      1.1999547    
    650500   301.42109      3665.9517     -3408.1979      0              1455.7541     -1194.6384      61996.691      39.578212      1.1960661    
    650600   299.57464      3700.1952     -3409.6128      0              1458.8458      1070.6349      61493.206      39.47078       1.2058591    
    650700   301.26236      3660.7647     -3427.1897      0              1474.284       1093.997       61404.165      39.45172       1.2076076    
    650800   297.65304      3676.2952     -3408.0844      0              1494.2233     -177.84997      61392.722      39.449269      1.2078327    
    650900   298.37874      3570.0302     -3423.4564      0              1479.8465      761.2352       61256.192      39.420004      1.2105248    
    651000   297.79124      3563.3203     -3471.1791      0              1482.3573      149.79631      61334.406      39.436775      1.2089811    
    651100   302.29412      3636.8908     -3424.0919      0              1462.7757     -306.85817      61430.802      39.457424      1.207084     
    651200   303.43713      3649.2694     -3415.8524      0              1480.7491      1328.2526      61526.903      39.477989      1.2051986    
    651300   301.12326      3645.2592     -3429.6291      0              1507.9176      152.38833      61684.024      39.511565      1.2021288    
    651400   300.52999      3609.1208     -3462.2585      0              1502.5254      513.9374       61414.831      39.454004      1.2073979    
    651500   302.48255      3546.1        -3442.8779      0              1480.0592      3020.548       61124.253      39.391682      1.2131378    
    651600   296.16568      3653.3978     -3445.1234      0              1479.6317     -432.2634       61725.349      39.520387      1.2013239    
    651700   298.80827      3686.6826     -3415.1313      0              1495.3671      703.50598      61794.95       39.535235      1.1999709    
    651800   301.70997      3727.335      -3404.559       0              1466.8984     -1669.2627      61816.83       39.539901      1.1995461    
    651900   300.5099       3735.6567     -3420.8632      0              1506.5286     -670.4959       61471.264      39.466085      1.2062895    
    652000   303.38051      3578.9678     -3425.0744      0              1468.5575      197.35103      61579.465      39.489227      1.2041699    
    652100   297.29701      3561.995      -3409.1753      0              1465.4284     -361.9603       61521.76       39.476889      1.2052994    
    652200   297.24992      3596.3228     -3416.7838      0              1467.1269     -303.28987      61454.411      39.462478      1.2066203    
    652300   300.2516       3599.2851     -3398.1109      0              1448.6527      337.05846      61734.665      39.522375      1.2011427    
    652400   301.87565      3623.5086     -3390.4304      0              1482.2894     -877.08752      61640.161      39.502197      1.2029842    
    652500   301.39583      3729.5821     -3428.6793      0              1473.1443     -1089.7357      61540.66       39.480931      1.2049292    
    652594   301.27361      3746.0617     -3406.8976      0              1466.8088     -1195.8177      61601.378      39.493911      1.2037416    
Loop time of 12237 on 4 procs for 500000 steps with 6487 atoms

Performance: 3.530 ns/day, 6.798 hours/ns, 40.860 timesteps/s
68.4% CPU use with 1 MPI tasks x 4 OpenMP threads

MPI task timing breakdown:
Section |  min time  |  avg time  |  max time  |%varavg| %total
---------------------------------------------------------------
Pair    | 6928.3     | 6928.3     | 6928.3     |   0.0 | 56.62
Bond    | 3554.3     | 3554.3     | 3554.3     |   0.0 | 29.05
Neigh   | 1005.9     | 1005.9     | 1005.9     |   0.0 |  8.22
Comm    | 112.15     | 112.15     | 112.15     |   0.0 |  0.92
Output  | 2.6887     | 2.6887     | 2.6887     |   0.0 |  0.02
Modify  | 620.03     | 620.03     | 620.03     |   0.0 |  5.07
Other   |            | 13.58      |            |       |  0.11

Nlocal:           6487 ave        6487 max        6487 min
Histogram: 1 0 0 0 0 0 0 0 0 0
Nghost:          20472 ave       20472 max       20472 min
Histogram: 1 0 0 0 0 0 0 0 0 0
Neighs:    2.44755e+06 ave 2.44755e+06 max 2.44755e+06 min
Histogram: 1 0 0 0 0 0 0 0 0 0

Total # of neighbors = 2447548
Ave neighs/atom = 377.30045
Ave special neighs/atom = 11.83043
Neighbor list builds = 25670
Dangerous builds = 0
unfix			1
#final
write_data		PVA_GA_NC_OXY_LARGE_DIHEDRALS_EQUILIBRATED_WITH_CHARGE_AFTER_LINKING.data
System init for write_data ...
Generated 231 of 231 mixed pair_coeff terms from geometric mixing rule
Last active /omp style is dihedral_style harmonic/omp

#parameter
neighbor		2.0 bin
Total wall time: 4:12:16
