LAMMPS data file via write_data, version 15 Sep 2022, timestep = 0

3596 atoms
17 atom types
3632 bonds
18 bond types
6624 angles
31 angle types
10296 dihedrals
34 dihedral types

0.1945 90.1945 xlo xhi
-0.043001 89.956999 ylo yhi
0.018501 90.018501 zlo zhi

Masses

1 1.00794
2 1.00794
3 12.0107
4 12.0107
5 1.00794
6 1.00794
7 1.00794
8 1.00794
9 1.00794
10 15.9994
11 15.9994
12 15.9994
13 28.085501
14 12.0107
15 12.0107
16 1.00794
17 15.9994

Pair Coeffs # lj/cut

1 0.038 2.44997
2 0.038 2.44997
3 0.039 3.87541
4 0.039 3.87541
5 0.038 2.44997
6 0.038 2.44997
7 0.038 2.44997
8 0.038 2.44997
9 0.038 2.44997
10 0.228 2.85978
11 0.228 2.85978
12 0.228 2.85978
13 0.04 4.05343
14 0.148 3.61705
15 0.039 3.87541
16 0.038 2.44997
17 0.228 2.85978

Bond Coeffs # harmonic

1 340.618 1.105
2 340.618 1.105
3 322.716 1.526
4 340.618 1.105
5 340.618 1.105
6 340.618 1.105
7 384 1.42
8 540.634 0.96
9 540.634 0.96
10 222.4 1.382
11 540.634 0.96
12 392.8 1.6652
13 392.8 1.6652
14 283.092 1.52
15 340.618 1.105
16 615.322 1.23
17 322.716 1.526
18 340.618 1.105

Angle Coeffs # harmonic

1 39.5 106.4
2 44.4 110
3 39.5 106.4
4 44.4 110
5 39.5 106.4
6 46.6 110.5
7 44.4 110
8 44.4 110
9 70 109.5
10 46.6 110.5
11 44.4 110
12 58.5 106
13 33.3 113.4
14 33.3 113.4
15 33.3 113.4
16 33.3 113.4
17 39.5 106.4
18 57 109.5
19 57 109.5
20 42.3 113.1
21 42.3 113.1
22 42.3 113.1
23 31.1 149.8
24 46.6 110.5
25 45 109.5
26 50 120
27 68 120
28 46.6 110.5
29 44.4 110
30 55 120
31 39.5 106.4

Dihedral Coeffs # harmonic

1 1.4225 1 3
2 1.4225 1 3
3 1.4225 1 3
4 1.4225 1 3
5 1.4225 1 3
6 1.4225 1 3
7 1.4225 1 3
8 0.39 1 3
9 1.4225 1 3
10 1.4225 1 3
11 1.4225 1 3
12 1.4225 1 3
13 1 1 3
14 1 1 3
15 1 1 3
16 1 1 3
17 1 1 3
18 0.39 1 3
19 0.39 1 3
20 1.4225 1 3
21 1.4225 1 3
22 1.4225 1 3
23 1.4225 1 3
24 1 1 3
25 0.3 1 3
26 0.3 1 3
27 1.4225 1 3
28 1.4225 1 3
29 1.4225 1 3
30 0 1 0
31 0 1 0
32 1.4225 1 3
33 0 1 0
34 0 1 0

Atoms # full

2766 4 9 0.1432365061532242 45.012001 5.522 5.756 0 0 0
2776 4 1 0.1345716692108312 46.868999 5.696 3.729 0 0 0
2778 4 11 -0.4032041881578871 47.258999 3.803 5.03 0 0 0
2779 4 8 0.1379492965103144 46.362999 4.196 4.805 0 0 0
2775 4 4 -0.07656879012837875 48.289001 4.787 4.967 0 0 0
2777 4 6 0.1507432624865623 48.804001 5.054 5.909 0 0 0
2780 4 9 0.1391564166503689 48.955002 4.385 3.007 0 0 0
2781 4 3 -0.04981262114324597 49.346001 4.268 3.987 0 0 0
2782 4 4 -0.07210108820866001 50.735001 4.94 4.065 0 0 0
2783 4 1 0.1378762145596877 49.390999 3.195 4.148 0 0 0
2785 4 11 -0.4033587295819459 51.521 4.701 2.929 0 0 0
2786 4 8 0.1393051053443509 50.978001 4.883 2.156 0 0 0
2788 4 3 -0.04839336584085818 51.514 4.66 5.406 0 0 0
2789 4 4 -0.07664638709060012 52.131001 3.247 5.443 0 0 0
2790 4 1 0.1361314020725559 52.347 5.429 5.514 0 0 0
2791 4 6 0.1619525171379592 51.516998 2.629 4.747 0 0 0
2794 4 9 0.1376265268969618 54.094002 4.179 5.164 0 0 0
2795 4 3 -0.04179812438814123 53.528 3.209 4.847 0 0 0
2797 4 1 0.1427174138616321 53.436001 3.301 3.747 0 0 0
2798 4 6 0.1657397584197936 53.887001 1.072 4.841 0 0 0
2796 4 4 -0.05613109218898704 54.416 1.991 5.137 0 0 0
2801 4 9 0.1486236091957697 56.224998 3.071 4.713 0 0 0
2802 4 3 -0.03460474692742121 55.741001 2.142 4.394 0 0 0
2803 4 4 -0.04785134170536431 56.68 0.911 4.498 0 0 0
2804 4 1 0.1510150176100701 55.566002 2.195 3.275 0 0 0
2805 4 6 0.1660652856224691 56.291 -0.006 3.966 0 0 0
2806 4 11 -0.3827671659410624 56.962002 0.662 5.887 0 0 0
2807 4 7 0.1675764669906686 57.644001 1.082 3.997 0 0 0
703 2 9 0.1555001005861427 89.088997 0.03099799999999675 4.708 0 1 0
2768 4 4 -0.07181740422648442 46.835999 6.849 5.482 0 0 0
2771 4 11 -0.3887205945564793 46.303001 7.957 4.797 0 0 0
2772 4 8 0.1576155770111078 45.533001 8.197 5.349 0 0 0
2774 4 3 -0.05062600831951874 47.639 6.039 4.461 0 0 0
2773 4 9 0.1363401568022165 48.394001 6.776 3.953 0 0 0
2784 4 6 0.1540920834355127 50.544998 6.051 4.042 0 0 0
1382 2 8 0.1387669686970436 39.349998 49.542 0.09400200000000325 0 0 1
830 2 9 0.1461470535299633 87.505997 52.695999 5.661 0 0 0
833 2 1 0.1340671147503984 85.983002 53.514999 5.807 0 0 0
107 1 9 0.1297750780351289 78.097 58.327999 5.619 0 0 0
808 2 8 0.1564189368530416 89.959999 59.588001 2.143 0 0 0
809 2 9 0.1414808213586402 88.353996 58.473 0.97 0 0 0
810 2 3 -0.03545350398993141 87.953003 58.884998 1.918 0 0 0
811 2 4 -0.06917436546770594 88.486 57.984001 3.077 0 0 0
812 2 1 0.1331129141850711 86.875999 58.738998 1.84 0 0 0
813 2 6 0.1599283977095183 88.458 56.889999 2.854 0 0 0
814 2 11 -0.3918003725048129 89.815002 58.313999 3.371 0 0 0
815 2 8 0.1561231905190056 90.069 58.028999 4.258 0 0 0
816 2 9 0.1350322282105856 86.629997 58.051998 4.141 0 0 0
817 2 3 -0.04753567562125877 87.686996 58.145 4.42 0 0 0
818 2 4 -0.05928959222072933 87.957001 57.073002 5.47 0 0 0
819 2 1 0.1376669250339918 87.623001 59.168999 4.914 0 0 0
821 2 11 -0.3850139021116772 89.292999 57.056 5.938 0 0 0
822 2 8 0.1592143936719624 89.541 56.108002 5.968 0 0 0
823 2 9 0.1382238478800393 87.901001 55.244999 4.356 0 0 0
824 2 3 -0.03456576242534898 87.456001 55.622002 5.271 0 0 0
826 2 1 0.1365340282843702 86.419998 55.592999 4.973 0 0 0
3079 19 14 -0.0407559036971531 32.962002 61.790001 3.224 0 0 0
3080 19 15 -0.02668697689864841 32.671001 62.730999 4.363 0 0 0
3081 19 15 -0.03603999780110201 31.391001 62.358002 5.129 0 0 0
3082 19 16 0.1622128259132924 32.555 63.769001 3.952 0 0 0
3083 19 16 0.1608086476332274 33.534 62.707001 5.066 0 0 0
3085 19 16 0.1849674338153115 31.503 61.34 5.541 0 0 0
3086 19 16 0.1861111511377564 30.528 62.369999 4.432 0 0 0
3088 19 16 0.1664250773448824 31.027 64.374001 5.871 0 0 0
3090 19 17 -0.4068476064751277 32.238998 60.847 2.964 0 0 0
3091 19 16 0.1529220500520138 33.854 61.952999 2.617 0 0 0
90 1 6 0.1592340101486185 74.855003 64.102997 5.353 0 0 0
95 1 4 -0.09018637257072359 77.263 62.660999 5.602 0 0 0
97 1 6 0.1477552088798983 77.069 63.189999 4.654 0 0 0
100 1 9 0.1226334045427866 77.721001 60.823002 4.497 0 0 0
101 1 3 -0.06345322131699743 77.203003 61.126999 5.486 0 0 0
103 1 1 0.1291536243975744 76.124001 60.699001 5.426 0 0 0
781 2 9 0.1314417160916411 81.265999 64.814003 4.402 0 0 0
782 2 3 -0.04792749000489444 82.346001 64.799004 4.659 0 0 0
783 2 4 -0.07504122135376923 82.989998 64.422997 3.33 0 0 0
784 2 1 0.1405410994695573 82.464996 64.000999 5.396 0 0 0
785 2 6 0.1544752898314674 82.68 65.203003 2.578 0 0 0
786 2 11 -0.3921846473676888 82.450996 63.153 3.092 0 0 0
787 2 8 0.1505218002826919 83.112999 62.769001 2.462 0 0 0
780 2 8 0.1366723094054665 84.302002 65.553001 5.093 0 0 0
788 2 9 0.1346651228546682 84.737 63.771999 4.394 0 0 0
789 2 3 -0.0421410823738112 84.517998 64.232002 3.427 0 0 0
790 2 4 -0.0748022579656657 85.184998 63.550999 2.23 0 0 0
791 2 1 0.1381158372129145 85.043999 65.161003 3.47 0 0 0
792 2 6 0.1598563802981231 85.016998 64.189003 1.319 0 0 0
793 2 11 -0.403155629780228 84.602997 62.244999 2.124 0 0 0
794 2 8 0.1383241648361008 84.771004 61.820999 2.982 0 0 0
795 2 9 0.1330459231647592 87.039001 62.877998 3.381 0 0 0
796 2 3 -0.04794322925736094 86.716003 63.360001 2.443 0 0 0
797 2 4 -0.06076642289352113 87.459 62.785 1.254 0 0 0
798 2 1 0.1408143718756107 87.07 64.391998 2.649 0 0 0
799 2 6 0.1641147818515201 87.162003 63.355 0.358 0 0 0
800 2 11 -0.3853796986145604 88.801003 63.081001 1.573 0 0 0
801 2 8 0.1610270490393997 88.960999 62.257999 2.008 0 0 0
803 2 3 -0.02910730159318536 87.410004 61.257 1.068 0 0 0
804 2 4 -0.06624760514468425 88.190002 60.348999 2.108 0 0 0
805 2 1 0.1422551334794213 86.335999 60.811001 1.094 0 0 0
806 2 6 0.1597155709646993 88.023003 60.567001 3.194 0 0 0
807 2 11 -0.3908364269539595 89.567001 60.473 1.816 0 0 0
762 2 4 -0.07889507094465348 82.428001 71.371002 4.435 0 0 0
764 2 6 0.162876228856002 81.306999 71.477997 4.5 0 0 0
765 2 11 -0.3896862340855359 83.110001 71.651001 5.681 0 0 0
767 2 9 0.1201720086913383 83.710999 69.652 3.777 0 0 0
768 2 3 -0.04922597478210627 82.663002 69.851997 3.959 0 0 0
769 2 4 -0.07827400560079739 82.374001 68.722 4.992 0 0 0
770 2 1 0.1307014386654926 82.092003 69.655998 3.078 0 0 0
771 2 6 0.1543016321491372 83.186996 68.764999 5.814 0 0 0
772 2 11 -0.4058679167119806 81.117996 68.987999 5.637 0 0 0
773 2 8 0.1514783306773878 81.263 69.949997 5.693 0 0 0
774 2 9 0.12611076539345 83.147003 67.257004 3.44 0 0 0
775 2 3 -0.05182315688422406 82.330002 67.372002 4.252 0 0 0
776 2 4 -0.07350505964162501 82.549004 66.193001 5.226 0 0 0
777 2 1 0.125351109871043 81.426003 67.209999 3.62 0 0 0
779 2 11 -0.4053818423105778 83.906998 66.219002 5.64 0 0 0
44 1 9 0.1380875677076402 76.182999 76.367996 5.791 0 0 0
45 1 3 -0.04098768579073653 75.153 76.598999 5.342 0 0 0
47 1 1 0.1366021798080672 75.021004 76.152 4.34 0 0 0
48 1 6 0.1748795474327425 72.959999 76.503998 5.801 0 0 0
54 1 1 0.1322035746527352 73.972 74.175003 5.235 0 0 0
61 1 1 0.1362253833600596 72.315002 72.220001 5.817 0 0 0
748 2 4 -0.0700731720279415 84.023003 76.102997 2.841 0 0 0
750 2 6 0.1602392709005362 82.994003 76.514 2.576 0 0 0
754 2 3 -0.05173468367138973 84.010002 74.603996 2.827 0 0 0
755 2 4 -0.06943955279324726 82.931999 73.813004 3.629 0 0 0
756 2 1 0.1290154079042085 83.977997 74.236 1.795 0 0 0
757 2 6 0.1618970679197752 83.063004 73.972 4.764 0 0 0
758 2 11 -0.4096749610943458 81.594002 74.277 3.272 0 0 0
759 2 8 0.1443500808390089 81.019997 73.748001 3.899 0 0 0
760 2 9 0.1308410089083634 84.012001 72.036003 3.231 0 0 0
761 2 3 -0.0504324489115266 82.988998 72.311996 3.36 0 0 0
763 2 1 0.1362134602631916 82.417 72.223 2.441 0 0 0
766 2 8 0.1410910343817713 83.899002 72.125 5.398 0 0 0
746 2 9 0.1413212751412291 86.200996 76.443001 2.237 0 0 0
747 2 3 -0.04364638011990651 85.127998 76.674004 1.906 0 0 0
749 2 1 0.1380104427633933 84.902 76.274002 0.9 0 0 0
751 2 11 -0.3952025691416077 84.255997 76.556999 4.212 0 0 0
752 2 8 0.1478920763035626 85.011002 75.947998 4.446 0 0 0
753 2 9 0.1265002466475847 85.025002 74.286003 3.199 0 0 0
23 1 9 0.138105655848001 77.654999 83.669998 3.881 0 0 0
24 1 3 -0.03858097111671893 77.505997 83.251999 4.907 0 0 0
26 1 1 0.1327969683732109 76.411003 82.955002 4.842 0 0 0
31 1 3 -0.05333740052804409 77.828003 80.690002 4.394 0 0 0
32 1 4 -0.08381980494036806 76.684998 80.038002 5.198 0 0 0
33 1 1 0.1345125265923995 77.407997 80.929001 3.374 0 0 0
34 1 6 0.1541402623973086 75.730003 80.722 5.084 0 0 0
37 1 9 0.1292947689224769 77.138 78.010002 4.462 0 0 0
38 1 3 -0.04462409648059473 76.294998 78.731003 4.497 0 0 0
39 1 4 -0.06752875003309267 75.005997 78.114998 5.234 0 0 0
40 1 1 0.1346931194187358 75.996002 78.863998 3.432 0 0 0
42 1 11 -0.3903951328587729 73.819 78.617996 4.586 0 0 0
43 1 8 0.1561006419579284 73.513 79.360001 5.097 0 0 0
25 1 4 -0.07912404637051176 78.390999 81.957001 4.992 0 0 0
27 1 6 0.1595429293620572 79.338997 82.212997 4.425 0 0 0
30 1 9 0.1350631628856455 78.585999 79.911003 4.232 0 0 0
744 2 11 -0.4027421134886444 83.695 78.700996 1.389 0 0 0
745 2 8 0.143873158497951 83.431 79.411003 1.965 0 0 0
724 2 8 0.1530030443444865 89.398003 83.740997 2.623 0 0 0
725 2 9 0.135856194159223 87.365997 83.856003 0.559 0 0 0
726 2 3 -0.04698096856121303 87.327003 83.386002 1.572 0 0 0
727 2 4 -0.0756756184811323 88.235001 82.106003 1.504 0 0 0
728 2 1 0.1269173481796533 86.235001 83.070999 1.602 0 0 0
729 2 6 0.1666367294695048 89.116997 82.407997 0.859 0 0 0
730 2 11 -0.3867040455236989 88.689003 81.704002 2.823 0 0 0
731 2 8 0.1604547714355865 87.994003 81.045998 3.056 0 0 0
732 2 9 0.1392426022277644 88.383003 80.103996 0.627 0 0 0
733 2 3 -0.04154088297787467 87.633003 80.858002 0.902 0 0 0
734 2 4 -0.08326480685990928 86.586998 80.146004 1.782 0 0 0
736 2 6 0.1446842957486145 85.614998 80.815002 1.799 0 0 0
737 2 11 -0.4069103600673252 87.083 79.818001 3.085 0 0 0
738 2 8 0.1430399316366336 87.045998 78.872002 3.202 0 0 0
739 2 9 0.1371898638309803 86.992996 78.165001 0.904 0 0 0
740 2 3 -0.04597251184343326 86.147003 78.866997 1.059 0 0 0
741 2 4 -0.07685028440401226 84.947998 78.191002 1.889 0 0 0
742 2 1 0.1331042188830345 85.740997 79.044998 0.038 0 0 0
743 2 6 0.1634913711473207 84.970001 78.473999 2.988 0 0 0
15 1 8 0.1410400369540637 75.623001 87.372002 5.354 0 0 0
16 1 9 0.1402623670237883 77.459 86.082001 4.641 0 0 0
17 1 3 -0.03580690485519666 77.027 85.624001 5.535 0 0 0
18 1 4 -0.05586516158953658 77.762001 84.356003 5.935 0 0 0
19 1 1 0.1353892131296194 75.970001 85.320999 5.173 0 0 0
704 2 3 -0.03917682307317671 88.984001 89.214996 5.445 0 0 0
705 2 4 -0.04710729493604116 87.873001 88.276001 5.12 0 0 0
707 2 2 0.1505772694570135 90.003998 88.789001 5.329 0 0 0
708 2 6 0.1676088889136056 86.880997 88.763 5.256 0 0 0
710 2 8 0.1479678700124843 88.994003 86.992996 5.983 0 0 0
711 2 9 0.1413452711541049 88.948997 87.074997 3.795 0 0 0
712 2 3 -0.02646443819585731 87.953003 87.615997 3.719 0 0 0
713 2 4 -0.07632786972262939 86.734001 86.640999 3.542 0 0 0
714 2 1 0.1385244611179123 88.044998 88.306 2.917 0 0 0
715 2 6 0.1607005058841358 86.582001 86.07 4.475 0 0 0
716 2 11 -0.3994774233623055 85.568001 87.454002 3.329 0 0 0
717 2 8 0.1363689839855843 85.438004 87.441002 2.411 0 0 0
718 2 9 0.1287378122715579 87.210999 86.223 1.455 0 0 0
719 2 3 -0.05599381545397591 86.878998 85.714996 2.364 0 0 0
720 2 4 -0.07445245991513266 87.667999 84.444 2.624 0 0 0
721 2 1 0.1331223261228041 85.794998 85.408997 2.094 0 0 0
722 2 6 0.1590710588826856 87.266998 84.024002 3.616 0 0 0
723 2 11 -0.3986371331834176 89.099998 84.617996 2.81 0 0 0
2769 4 1 0.1414999152038304 46.213001 5.255 7.015 0 0 0
2787 4 9 0.1350816076201225 50.804001 4.949 6.222 0 0 0
2792 4 11 -0.3941981032662856 52.002998 2.76 6.754 0 0 0
2793 4 8 0.1418379669720781 51.487999 3.375 7.213 0 0 0
2800 4 8 0.1566962867065298 53.694 1.992 6.827 0 0 0
2799 4 11 -0.3880291897396541 54.563 1.887 6.519 0 0 0
2808 4 8 0.1657486425866926 56.216 1.059 6.383 0 0 0
1 1 9 0.1523303397987399 79.077003 0.019997000000003595 7.878 0 1 0
2747 4 4 -0.07913943360887959 44.662998 8.478 11.536 0 0 0
2749 4 6 0.1542213790560957 44.236 7.634 11.074 0 0 0
2750 4 11 -0.3986730993041118 43.558998 9.387 11.822 0 0 0
2752 4 9 0.1431230746037139 46.414001 8.746 10.506 0 0 0
2753 4 3 -0.04313923337907855 45.43 9.132 10.464 0 0 0
2754 4 4 -0.06883512729292557 44.903999 8.958 9.032 0 0 0
2755 4 1 0.1422225292794898 45.488998 10.198 10.821 0 0 0
2756 4 6 0.1656335377570636 45.351002 9.687 8.327 0 0 0
2757 4 11 -0.3869012476305806 43.525002 9.213 8.918 0 0 0
2758 4 8 0.1576113405825439 43.206001 9.714 9.72 0 0 0
2759 4 9 0.1394480903213922 45.088001 6.805 9.289 0 0 0
2760 4 3 -0.03728558448671793 45.334 7.556 8.494 0 0 0
2761 4 4 -0.06426562589707613 44.773998 6.96 7.212 0 0 0
2762 4 1 0.1342839991987017 46.419998 7.537 8.375 0 0 0
2763 4 6 0.1669590348486581 43.890999 6.367 7.487 0 0 0
2764 4 11 -0.3902983336303059 44.266998 8.049 6.447 0 0 0
2765 4 8 0.1574072292316139 43.889 8.656 7.138 0 0 0
2767 4 3 -0.04597701330249648 45.785 6.062 6.354 0 0 0
2770 4 6 0.152740518539114 47.595001 7.171 6.233 0 0 0
1927 3 1 0.1385490923577345 11.835 29.534 11.516 0 0 0
1931 3 9 0.1336202935781722 10.389 28.089001 10.149 0 0 0
1932 3 3 -0.04786123147792831 10.853 28.459 9.176 0 0 0
1933 3 4 -0.07912128046247285 10.025 29.608 8.674 0 0 0
1934 3 1 0.1376768863239065 10.785 27.530001 8.511 0 0 0
1937 3 8 0.1555774122057799 11.638 29.872999 7.902 0 0 0
1938 3 9 0.1360289785006997 8.344 28.370001 8.762 0 0 0
1939 3 3 -0.03823913534244494 8.723 29.070999 8.047 0 0 0
1941 3 1 0.1364104996115627 9.065 28.472 7.165 0 0 0
1942 3 6 0.162517150675085 6.794 29.455 7.232 0 0 0
1919 3 4 -0.06806499381327541 13.849 29.861 11.355 0 0 0
1921 3 6 0.1473785127689725 14.094 28.802999 11.626 0 0 0
1925 3 3 -0.04749898914953465 12.481 29.818001 10.705 0 0 0
1926 3 4 -0.07686619315193455 12.367 28.778 9.521 0 0 0
1928 3 6 0.1597548604789068 12.779 27.816999 9.853 0 0 0
1929 3 11 -0.4004025740694535 13.178 29.292 8.432 0 0 0
1930 3 8 0.1578964218509027 13.924 29.771999 8.833 0 0 0
1947 3 4 -0.07648530489922239 5.928 31.714001 8.605 0 0 0
1950 3 11 -0.3992445198658252 4.981 30.969 7.828 0 0 0
1951 3 8 0.1482628065841274 5.406 31.134001 7.004 0 0 0
1952 3 9 0.131363620475448 5.845 32.609001 10.581 0 0 0
1953 3 3 -0.04898716510127327 5.172 32.363998 9.754 0 0 0
1954 3 4 -0.07573798448988961 4.243 33.577 9.609 0 0 0
1955 3 1 0.133064516350072 4.585 31.535 10.191 0 0 0
1956 3 6 0.1557984667224932 3.672 33.611 10.59 0 0 0
1957 3 11 -0.3945652361716946 3.27 33.154999 8.676 0 0 0
1958 3 8 0.1543178156664323 3.754 32.408001 8.293 0 0 0
1959 3 9 0.1326722738792148 5.292 34.803001 8.267 0 0 0
1960 3 3 -0.05078778987958166 4.809 34.907001 9.226 0 0 0
1962 3 1 0.1327948879819248 5.611 35.112 10.01 0 0 0
1964 3 11 -0.3884631995384126 2.711 35.757999 8.412 0 0 0
1965 3 8 0.1618020705341458 2.851 34.810001 8.341 0 0 0
1924 3 9 0.1368100206390395 12.129 30.834 10.396 0 0 0
1935 3 6 0.1542440642658655 9.76 30.280001 9.471 0 0 0
1936 3 11 -0.3908471835915739 10.853 30.419001 7.753 0 0 0
1940 3 4 -0.06821485446633524 7.578 30.027 7.727 0 0 0
1943 3 11 -0.3937812749534578 8.176 30.889999 6.774 0 0 0
1944 3 8 0.1559931166428202 9.112 30.919001 6.944 0 0 0
1945 3 9 0.1299691206814891 7.961 31.316 9.443 0 0 0
1946 3 3 -0.04737676695959209 7.064 30.763 8.97 0 0 0
1948 3 1 0.1337670237276669 6.758 30.017 9.659 0 0 0
1949 3 6 0.1584423126715298 6.315 32.666 7.982 0 0 0
1922 3 11 -0.3895415462595765 14.861 30.239 10.465 0 0 0
1923 3 8 0.1510691630306202 15.689 30.222 11.067 0 0 0
1961 3 4 -0.06756962322980242 3.751 36.115002 9.24 0 0 0
1963 3 6 0.1553478435704087 3.366 36.223999 10.267 0 0 0
1966 3 9 0.146138335130997 3.562 37.873001 7.984 0 0 0
1967 3 3 -0.04930829719674512 4.35 37.438 8.699 0 0 0
1968 3 4 -0.07158048678074125 4.736 38.556999 9.642 0 0 0
1969 3 1 0.1345791256591121 5.044 37.331001 7.948 0 0 0
1970 3 6 0.1648605893634578 3.871 38.945 10.308 0 0 0
1971 3 11 -0.392256100463388 4.99 39.647999 8.769 0 0 0
1972 3 8 0.1429535478427678 5.859 39.490002 8.413 0 0 0
1974 3 3 -0.05190368258499195 5.988 38.339001 10.505 0 0 0
1976 3 1 0.1299027156904277 5.812 37.459999 11.165 0 0 0
1979 3 8 0.1514454470014739 5.05 40.391998 11.519 0 0 0
1973 3 9 0.1299955829987815 6.69 38.023998 9.756 0 0 0
1975 3 4 -0.07325767019323254 6.67 39.543999 11.174 0 0 0
1977 3 6 0.1630187185443313 6.898 40.280998 10.366 0 0 0
1980 3 9 0.1363697541052276 8.487 38.27 11.545 0 0 0
1985 3 11 -0.390305066101531 9.597 40.519001 11.314 0 0 0
1986 3 8 0.1535278119191474 10.364 39.938 11.296 0 0 0
128 1 9 0.1389425998825274 76.671997 52.806999 10.475 0 0 0
129 1 3 -0.04869074114875582 76.039001 53.488998 11.046 0 0 0
131 1 1 0.1332472077985689 75.157997 53.653999 10.427 0 0 0
135 1 9 0.1378570661821993 74.904999 50.916 11.737 0 0 0
138 1 1 0.1384345845403958 73.740997 52.112999 11.453 0 0 0
127 1 8 0.1482717891547114 78.205002 53.818001 11.967 0 0 0
842 2 11 -0.387854180251875 83.973999 50.139 8.656 0 0 0
843 2 8 0.1605186329283372 83.529999 50.157001 9.514 0 0 0
844 2 9 0.1368444289775878 83.473999 52.709999 9.263 0 0 0
846 2 4 -0.06821253998836641 83.953003 51.776001 11.124 0 0 0
849 2 11 -0.3872426984646475 82.888 50.833 10.94 0 0 0
850 2 8 0.1628472899907996 82.32 50.993999 11.731 0 0 0
851 2 9 0.1336404395678031 82.662003 53.450001 11.42 0 0 0
829 2 8 0.1613430531168546 89.167 53.664001 7.041 0 0 0
831 2 3 -0.03135659514451045 86.924004 53.337002 6.326 0 0 0
832 2 4 -0.07057176856448882 86.783997 52.567001 7.674 0 0 0
834 2 6 0.1545623409878815 86.634003 53.301998 8.489 0 0 0
835 2 11 -0.4002356981467214 88.056999 51.908001 7.891 0 0 0
836 2 8 0.1489273097389757 87.914001 51.009998 8.208 0 0 0
837 2 9 0.1435510497598533 85.903999 50.712002 6.996 0 0 0
838 2 3 -0.03593218503596601 85.542 51.588001 7.516 0 0 0
839 2 4 -0.07260419302286658 85.005997 51.118999 8.904 0 0 0
840 2 1 0.1323811410070999 84.698997 51.897999 6.89 0 0 0
841 2 6 0.1596303164270114 85.843002 50.661999 9.406 0 0 0
845 2 3 -0.04706813099677348 84.353996 52.263 9.766 0 0 0
847 2 1 0.1332785222991558 85.137001 53.057999 9.864 0 0 0
848 2 6 0.1632840519666026 84.816002 51.194 11.521 0 0 0
108 1 3 -0.06016858886815654 77.612 58.792999 6.501 0 0 0
109 1 4 -0.08447735293864661 78.009003 57.944 7.75 0 0 0
110 1 1 0.1299899297156295 76.544998 58.659 6.322 0 0 0
111 1 6 0.1483233233801643 77.981003 56.84 7.578 0 0 0
114 1 9 0.1259580571835071 76.057999 58.092999 8.617 0 0 0
115 1 3 -0.06478813739396416 77.083 58.183998 8.997 0 0 0
116 1 4 -0.09076316860634284 77.225998 57.160999 10.119 0 0 0
117 1 1 0.1331930221912269 76.989998 59.231998 9.431 0 0 0
118 1 6 0.1451861584554645 76.586998 57.543999 10.888 0 0 0
121 1 9 0.1296614660335014 77.245003 55.280998 9.095 0 0 0
122 1 3 -0.05784990221423342 76.718002 55.709999 9.941 0 0 0
123 1 4 -0.08237873379422705 76.790001 54.825001 11.216 0 0 0
124 1 1 0.1316262623280001 75.717003 55.681 9.542 0 0 0
126 1 11 -0.4029616684392232 78.153 54.632 11.526 0 0 0
106 1 8 0.1468750379781411 79.599998 59.477001 6.892 0 0 0
112 1 11 -0.4063928186853019 79.307999 58.268002 8.159 0 0 0
113 1 8 0.1489891058033834 79.466003 58.025002 9.081 0 0 0
119 1 11 -0.3897868074627607 78.507004 57.147999 10.719 0 0 0
120 1 8 0.1525431271097368 78.733002 56.199001 10.82 0 0 0
820 2 6 0.1581650580812589 87.393997 57.404999 6.318 0 0 0
825 2 4 -0.06897703469224753 87.667999 54.678001 6.486 0 0 0
827 2 6 0.1594776601426361 87.317001 55.174 7.45 0 0 0
828 2 11 -0.3849658405185781 89.058998 54.497002 6.649 0 0 0
3087 19 14 -0.03269009246551802 29.879999 62.990002 7.027 0 0 0
3092 19 17 -0.3941047218768573 29.527 63.669998 7.975 0 0 0
3093 19 16 0.1560263253270197 29.290001 62.136002 6.738 0 0 0
3084 19 15 -0.02330811069907168 31.132 63.34 6.281 0 0 0
3089 19 16 0.1664810507800654 31.992001 63.311001 6.99 0 0 0
79 1 9 0.1391422891370515 70.828003 64.936996 8.008 0 0 0
80 1 3 -0.03612772524706692 71.876999 64.918999 8.373 0 0 0
82 1 1 0.1399888917360188 71.905998 64.156998 9.157 0 0 0
84 1 11 -0.3881312102148287 72.105003 63.195 6.907 0 0 0
78 1 8 0.1385033766189233 73.793999 65.665001 8.965 0 0 0
81 1 4 -0.07777180234018682 72.642998 64.467003 7.136 0 0 0
83 1 6 0.1565060568261203 72.425003 65.213997 6.319 0 0 0
85 1 8 0.155576192054645 72.819 62.771 6.366 0 0 0
86 1 9 0.1326460321899508 74.262001 63.844002 8.4 0 0 0
87 1 3 -0.03819105794194588 74.149002 64.259003 7.395 0 0 0
88 1 4 -0.07007997609841671 74.918999 63.508999 6.306 0 0 0
89 1 1 0.1402096414170956 74.686996 65.181 7.446 0 0 0
91 1 11 -0.402338603523134 74.324997 62.208 6.206 0 0 0
92 1 8 0.1457315428476499 74.397003 61.825001 7.095 0 0 0
93 1 9 0.1290807638849727 76.636002 62.868 7.669 0 0 0
94 1 3 -0.05781784387156447 76.417 63.306999 6.681 0 0 0
96 1 1 0.1370609385459025 76.768997 64.342003 6.872 0 0 0
102 1 4 -0.09632845669570356 77.857002 60.261002 6.642 0 0 0
104 1 6 0.1449066001036923 77.586998 60.535999 7.695 0 0 0
98 1 11 -0.4122978552734063 78.571999 62.953999 6.04 0 0 0
99 1 8 0.145019789445431 78.671997 62.151001 6.529 0 0 0
105 1 11 -0.4018478499422888 79.259003 60.349998 6.485 0 0 0
60 1 4 -0.07015558280082823 72.110001 71.469002 7.841 0 0 0
62 1 6 0.1673066414013128 70.989998 71.596001 7.787 0 0 0
67 1 4 -0.07036420218961564 71.948997 68.852997 8.517 0 0 0
68 1 1 0.140160692300165 71.877998 69.694 6.541 0 0 0
70 1 11 -0.3968566713562184 70.639999 69.169998 9.018 0 0 0
71 1 8 0.1526278372241028 70.797997 70.130997 9.042 0 0 0
73 1 3 -0.04636982582730692 71.953003 67.469002 7.843 0 0 0
74 1 4 -0.06822811656296424 72.049004 66.335999 8.89 0 0 0
75 1 1 0.135165595204764 71.112999 67.288002 7.131 0 0 0
76 1 6 0.164654318407619 71.237 66.490997 9.656 0 0 0
63 1 11 -0.3916776280336162 72.668999 71.802002 9.134 0 0 0
65 1 9 0.1370040588291015 73.418999 69.700996 7.399 0 0 0
66 1 3 -0.04203534621263411 72.362 69.925003 7.465 0 0 0
69 1 6 0.1636881129442979 72.677002 68.926003 9.414 0 0 0
72 1 9 0.1390860141829036 72.844002 67.301003 7.123 0 0 0
77 1 11 -0.39827258623986 73.359001 66.363998 9.436 0 0 0
778 2 6 0.1629531059240172 81.816002 66.293999 6.076 0 0 0
56 1 11 -0.3942385224381238 71.454002 74.325996 6.46 0 0 0
57 1 8 0.1520363841527838 70.809998 73.836998 7.051 0 0 0
46 1 4 -0.06228980829836911 73.948997 76.091003 6.188 0 0 0
49 1 11 -0.3845460225936581 74.053001 76.611 7.551 0 0 0
50 1 8 0.1468254037400722 74.768997 76.002998 7.889 0 0 0
51 1 9 0.132846853009615 74.874001 74.280998 6.733 0 0 0
52 1 3 -0.04682116653907492 73.907997 74.594002 6.245 0 0 0
53 1 4 -0.07338021947215795 72.739998 73.860001 6.972 0 0 0
55 1 6 0.1600981998566005 72.760002 74.073997 8.106 0 0 0
58 1 9 0.1340405927309571 73.819 72.050003 6.772 0 0 0
59 1 3 -0.043339082861443 72.793999 72.347 6.783 0 0 0
64 1 8 0.1446659456834267 73.491997 72.249001 8.909 0 0 0
29 1 8 0.1591225099484129 77.975998 80.981003 6.561 0 0 0
35 1 11 -0.4053057997433483 77.042 79.768997 6.559 0 0 0
36 1 8 0.1383949100045904 76.974998 78.831001 6.717 0 0 0
41 1 6 0.16814047332522 74.922997 78.453003 6.315 0 0 0
22 1 8 0.1458120589497525 79.469002 83.628998 6.142 0 0 0
28 1 11 -0.3938058147376793 78.703003 81.614998 6.368 0 0 0
3 1 4 -0.04901917401556111 77.791 88.306 8.251 0 0 0
6 1 6 0.1751863073827559 76.801003 88.813004 8.262 0 0 0
7 1 11 -0.3815411108288181 77.875 87.313004 9.271 0 0 0
10 1 3 -0.03296528846160385 77.998001 87.574997 6.899 0 0 0
11 1 4 -0.06413270280960792 76.783997 86.610001 6.647 0 0 0
12 1 1 0.1372667202340346 78.182999 88.223 6.077 0 0 0
13 1 6 0.1621414310791823 76.528 86.088997 7.586 0 0 0
14 1 11 -0.3969144947871681 75.661003 87.429001 6.278 0 0 0
20 1 6 0.1684739683403447 77.254997 83.992996 6.901 0 0 0
2 1 3 -0.04449204217476876 78.882004 89.242996 8.64 0 0 0
4 1 1 0.1580704396547811 78.696999 89.811996 9.542 0 0 0
5 1 2 0.1476325208150811 79.901001 88.796997 8.648 0 0 0
8 1 8 0.1378580095561416 78.794998 87.051003 9.283 0 0 0
9 1 9 0.1447187784518468 78.970001 87.024002 7.101 0 0 0
21 1 11 -0.4007879054215092 79.170998 84.518997 6.256 0 0 0
706 2 1 0.1595981538652564 88.882004 89.736 6.389 0 0 0
709 2 11 -0.3862910379134142 88.072998 87.237 6.077 0 0 0
2726 4 4 -0.07054272490037883 44.814999 10.897 17.524 0 0 0
2727 4 1 0.1326375851599333 42.828999 11.714 17.872 0 0 0
2728 4 6 0.1566966534632791 44.535 9.862 17.219999 0 0 0
2732 4 3 -0.0449987386746124 44.910999 11.791 16.202 0 0 0
2733 4 4 -0.07260563375166745 45.921001 11.2 15.198 0 0 0
2734 4 1 0.1392072048731101 43.936001 11.867 15.686 0 0 0
2735 4 6 0.1602699786468681 46.159 11.89 14.404 0 0 0
2736 4 11 -0.3924866285742787 47.133999 10.985 15.909 0 0 0
2737 4 8 0.1533252765138324 46.813999 10.565 16.726 0 0 0
2738 4 9 0.1365174047280736 44.408001 10.21 13.943 0 0 0
2739 4 3 -0.04761851789932614 45.34 9.899 14.478 0 0 0
2740 4 4 -0.07030395615737828 46.32 9.097 13.586 0 0 0
2741 4 1 0.1359832371897745 44.970001 9.193 15.286 0 0 0
2742 4 6 0.1629902128722296 46.966 8.556 14.285 0 0 0
2743 4 11 -0.3995851793371258 47.146999 9.932 12.768 0 0 0
2744 4 8 0.1503531836970883 47.558998 10.572 13.386 0 0 0
2745 4 9 0.1376224054849786 44.787998 7.55 13.502 0 0 0
2746 4 3 -0.04924422111126781 45.471001 8.048 12.785 0 0 0
2748 4 1 0.1375669029942295 46.054001 7.187 12.562 0 0 0
2751 4 8 0.1347629652067771 43.858002 9.968 12.579 0 0 0
2731 4 9 0.1373051459378831 45.141998 12.827 16.499001 0 0 0
1914 3 6 0.1584683793744173 14.931 29.421 13.941 0 0 0
1900 3 6 0.1456309732426217 13.15 31.733 17.302 0 0 0
1901 3 11 -0.4152523533034003 13.837 29.989 17.917999 0 0 0
1904 3 3 -0.05134874351531876 15.269 31.844999 17.473 0 0 0
1905 3 4 -0.08833751988624639 15.641 31.131001 16.094 0 0 0
1906 3 1 0.1326571455625896 15.419 32.917999 17.312 0 0 0
1907 3 6 0.1528319541217102 15.593 30.034 16.298 0 0 0
1908 3 11 -0.4049540794552488 16.921 31.504999 15.727 0 0 0
1909 3 8 0.1413271816176253 16.968 32.457001 15.778 0 0 0
1910 3 9 0.1278715003453321 14.867 32.476002 14.504 0 0 0
1911 3 3 -0.05495731050068314 14.707 31.462999 14.926 0 0 0
1912 3 4 -0.06953214108036637 14.926 30.516001 13.718 0 0 0
1913 3 1 0.1285019550086273 13.654 31.487 15.229 0 0 0
1915 3 11 -0.3865662679542526 16.142 30.961 13.192 0 0 0
1916 3 8 0.1575214320965627 16.652 31.049 13.998 0 0 0
1917 3 9 0.1314970313756283 14.097 31.827 12.192 0 0 0
1918 3 3 -0.0454991360404865 13.892 30.802999 12.601 0 0 0
1920 3 1 0.1341297458216749 12.869 30.9 13.042 0 0 0
2512 4 11 -0.3909405077781829 40.369999 34.948002 17.900999 0 0 0
1978 3 11 -0.3908115529485667 5.802 40.152 12.058 0 0 0
1981 3 3 -0.04338335562748635 7.849 39.006001 12.041 0 0 0
1982 3 4 -0.06735624711773469 8.856 40.118999 12.486 0 0 0
1983 3 1 0.1383769938554328 7.414 38.512001 12.961 0 0 0
1984 3 6 0.1565857405424215 8.301 40.965 12.856 0 0 0
1987 3 9 0.1296684224856566 10.287 38.673 13.29 0 0 0
1988 3 3 -0.05079973379175651 9.795 39.617001 13.594 0 0 0
1989 3 4 -0.07363106702580474 10.736 40.682999 14.246 0 0 0
1990 3 1 0.1312026251021373 9.144 39.310001 14.477 0 0 0
1991 3 6 0.1379796589453875 10.153 41.394001 14.875 0 0 0
1992 3 11 -0.399408542723595 11.5 41.286999 13.197 0 0 0
1993 3 8 0.1466704917851359 10.85 41.511002 12.495 0 0 0
1995 3 3 -0.05756326393604017 11.765 40.011002 15.088 0 0 0
1997 3 1 0.1264109440765685 11.192 39.405998 15.802 0 0 0
2001 3 9 0.1335941597144583 11.829 41.229 17.556 0 0 0
1994 3 9 0.132119532828963 12.307 39.300999 14.426 0 0 0
1996 3 4 -0.07606588695001054 12.903 40.757999 15.864 0 0 0
1998 3 6 0.1627176768665724 13.503 41.312 15.19 0 0 0
1999 3 11 -0.39842063518866 13.692 39.755001 16.552999 0 0 0
2000 3 8 0.136118292096095 13.065 39.012001 16.690001 0 0 0
2002 3 3 -0.04845745438763466 12.404 41.821999 16.886999 0 0 0
2005 3 6 0.1609604891579649 14.249 41.951 17.952 0 0 0
2504 4 6 0.1666920392741336 40.993999 38.627998 17.931999 0 0 0
2505 4 11 -0.3811707612961464 39.189999 39.308998 17.423 0 0 0
2506 4 8 0.1577059124853013 39.578999 40.187 17.530001 0 0 0
2507 4 9 0.1455205031232867 38.949001 36.977001 17.355 0 0 0
2004 3 1 0.1271226375744778 11.648 42.419998 16.408001 0 0 0
2003 3 4 -0.07143006957797726 13.468 42.639999 17.632999 0 0 0
2006 3 11 -0.4024507155592275 14.17 43.527 16.785 0 0 0