LAMMPS data file via write_data, version 15 Sep 2022, timestep = 2500056

6684 atoms
18 atom types
6640 bonds
16 bond types
12076 angles
27 angle types
18888 dihedrals
28 dihedral types

71.02118317566179 110.19482682433797 xlo xhi
70.26018017566183 109.433823824338 ylo yhi
69.99868017566185 109.17232382433805 zlo zhi

Masses

1 1.00794
2 1.00794
3 12.0107
4 12.0107
5 1.00794
6 1.008
7 1.00794
8 1.00794
9 1.00794
10 1.00794
11 15.999
12 15.9994
13 15.9994
14 28.085501
15 12.0107
16 12.0107
17 1.00794
18 15.9994

Pair Coeffs # lj/cut/coul/cut/omp

1 0.038 2.44997
2 0.038 2.44997
3 0.039 3.87541
4 0.039 3.87541
5 0.038 2.44997
6 0 1
7 0.038 2.44997
8 0.038 2.44997
9 0 0
10 0.038 2.44997
11 0.1521 3.1507
12 0.228 2.85978
13 0.228 2.85978
14 0.04 4.05343
15 0.148 3.61705
16 0.039 3.87541
17 0.038 2.44997
18 0.228 2.85978

Bond Coeffs # harmonic/omp

1 340.618 1.105
2 340.618 1.105
3 322.716 1.526
4 340.618 1.105
5 340.618 1.105
6 340.618 1.105
7 384 1.42
8 540.634 0.96
9 450 0.9572
10 540.634 0.96
11 392.8 1.665
12 283.092 1.52
13 340.618 1.105
14 615.322 1.23
15 322.716 1.526
16 340.618 1.105

Angle Coeffs # harmonic/omp

1 39.5 106.4
2 44.4 110
3 39.5 106.4
4 44.4 110
5 39.5 106.4
6 46.6 110.5
7 44.4 110
8 44.4 110
9 70 109.5
10 46.6 110.5
11 44.4 110
12 58.5 106
13 33.3 113.4
14 55 104.52
15 39.5 106.4
16 57 109.5
17 57 109.5
18 42.3 113.1
19 31.1 149.8
20 46.6 110.5
21 45 109.5
22 50 120
23 68 120
24 46.6 110.5
25 44.4 110
26 55 120
27 39.5 106.4

Dihedral Coeffs # harmonic/omp

1 0.158 1 3
2 0.158 1 3
3 0.158 1 3
4 0.158 1 3
5 0.158 1 3
6 0.158 1 3
7 0.158 1 3
8 0.13 1 3
9 0.158 1 3
10 0.158 1 3
11 0.158 1 3
12 0.158 1 3
13 1 1 3
14 0.13 1 3
15 0.13 1 3
16 0.158 1 3
17 0.158 1 3
18 0.158 1 3
19 0.158 1 3
20 0.3 1 3
21 0.158 1 3
22 0.158 1 3
23 0.158 1 3
24 0 1 0
25 0 1 0
26 0.158 1 3
27 0 1 0
28 0 1 0

Atoms # full

1624 3 3 -0.0527196 75.01537809087863 74.24676300183499 74.32658184648261 1 0 0
1623 3 10 0.13161 73.98236300809835 74.6759627626541 74.32914745185619 1 0 0
1628 3 12 -0.399143 74.51399445566075 72.01873493148949 73.89386655752186 1 0 0
1625 3 4 -0.0836662 75.10588958213123 72.83191958253123 74.85431285690282 1 0 0
1626 3 1 0.129336 75.63033541759677 74.89116721852248 75.01346746265374 1 0 0
1618 3 4 -0.0776737 75.51833058688929 74.41288426369489 72.85699099113371 1 0 0
1627 3 7 0.15097 76.2035074590486 72.63797490701438 74.97240858940495 1 0 0
1620 3 7 0.156297 75.80005375038833 75.46365257904645 72.6494693010554 1 0 0
1621 3 12 -0.396673 76.6790494675217 73.60469944913405 72.63868508845316 1 0 0
1619 3 1 0.127912 73.46273749067475 74.37716734520376 71.94759768918378 1 0 0
1617 3 3 -0.0511933 74.45471451170673 73.98390942695612 71.76015483043984 1 0 0
1616 3 10 0.134267 74.30650574860175 72.873312996883 71.76183804460344 1 0 0
1640 3 1 0.13129 72.12212177743771 73.17226552553709 74.84122010235681 1 0 0
1629 3 9 0.147134 74.959768918189 71.12101789641467 74.06584027042233 1 0 0
1611 3 4 -0.0764156 74.89102089421671 74.49151113343538 70.40537566946774 1 0 0
1614 3 12 -0.407959 74.73929486572565 75.93211387678473 70.46057383456038 1 0 0
1613 3 7 0.160925 75.94190635294821 74.22026415811834 70.26221429136693 1 0 0
5075 8 12 -0.400409 76.42111634378436 71.50393442827439 70.29372212169085 0 1 1
1638 3 3 -0.0535624 71.9779930025821 72.8856034035476 75.86968293133822 1 0 0
1622 3 9 0.151401 77.35288448764739 73.96118696002294 73.1752722737574 1 0 0
1615 3 9 0.138418 75.54985403519171 76.21530336073712 69.99993538123327 1 0 0
5067 8 7 0.155195 76.79012942168995 70.80917157584197 72.90193477249018 0 1 1
1637 3 10 0.131998 71.6940556231475 71.80236176124704 75.91060363601832 1 0 0
1631 3 3 -0.057519 74.42630905042351 72.53872577982195 76.25478004441464 1 0 0
5076 8 9 0.155811 76.88824006806935 71.92434519317226 70.98045456079191 0 1 1
4156 6 10 0.138659 81.44189332771577 72.92378783606883 74.9593936151138 0 1 1
4158 6 4 -0.0781549 80.59474819123122 72.5338063081346 73.10662600354289 0 1 1
4157 6 3 -0.0520087 81.32046770130533 73.47774760547944 74.00013892254394 0 1 1
4151 6 4 -0.08782769999999999 80.5939077215138 74.86426277083416 74.13385457690444 0 1 1
4162 6 9 0.152843 79.07854335640985 72.22913537794702 74.41661958555633 0 1 1
4161 6 12 -0.394368 79.73798156713406 71.70219363592382 73.90319207582156 0 1 1
4164 6 3 -0.0462088 81.60703587221303 71.6671306958249 72.30932717611418 0 1 1
4159 6 1 0.137224 82.32714778606395 73.57344469346168 73.52316959752208 0 1 1
4160 6 7 0.160141 80.02897520396226 73.07328446163494 72.31819196436636 0 1 1
4166 6 1 0.129952 82.2946807742837 72.41999032646775 71.75586848440226 0 1 1
4142 6 10 0.13202 78.93386175181314 75.1462030793261 71.83134749813621 0 1 1
4144 6 4 -0.0789004 80.90997436200689 76.10836060369289 71.78457425367938 0 1 1
4163 6 10 0.134728 82.23591091654274 70.9802885423105 72.86307446909287 0 1 1
4150 6 3 -0.058275 81.04869898282989 76.1069723622888 73.26505557046988 0 1 1
4154 6 12 -0.405282 79.18632270693818 74.74867577114254 74.21265976167399 0 1 1
4153 6 7 0.149286 80.83721138047626 75.23829407945517 75.20667284017331 0 1 1
4155 6 9 0.131264 78.96931176787385 73.79151148262316 74.32804907125269 0 1 1
4147 6 12 -0.405878 81.67512372694362 75.08308633752381 71.16807720860896 0 1 1
4143 6 3 -0.0564573 79.47019447473687 75.92014991125171 71.26194392781584 0 1 1
4152 6 1 0.132647 82.0182347417278 76.39467227664167 73.5795272123323 0 1 1
4165 6 4 -0.074013 80.86314602897166 70.91901662822812 71.21978826155842 0 1 1
4167 6 7 0.160914 79.91867478686383 70.631363950199 71.62683602091525 0 1 1
4146 6 7 0.157907 81.35510822020451 77.04984979829685 71.49210719771375 0 1 1
6663 13 6 0.417 78.06289286314755 76.98417157162004 74.32635074318844 0 0 0
4145 6 1 0.131477 79.00730876618576 76.85352093970455 71.57665775006913 0 1 1
4168 6 12 -0.397764 80.83184180677958 71.73333783987304 109.1685329286974 0 1 0
4148 6 9 0.145995 82.51364719239618 75.55322534278052 70.97808136341831 0 1 1
5750 9 18 -0.407664 84.17630967271616 70.89997466272976 74.56886886848966 0 0 0
6609 2 5 0.273522 84.34817912184307 74.17856407312617 71.32591691665601 0 0 1
5751 9 17 0.147099 85.10761486120897 72.72025853845082 74.14983527351482 0 0 0
6652 10 11 -0.834 84.65505201841185 75.55051202432335 73.35681478642314 0 0 1
6653 10 6 0.417 85.62160316921961 75.48650128533109 72.99334379801165 0 0 1
6534 2 13 -0.201037 87.13646048205183 74.96163095309466 72.32968683228545 0 0 1
5852 16 17 0.220895 89.32787139645352 74.46637413464939 72.5541553357873 0 0 1
5846 16 17 0.184461 87.66895918861532 74.42166782830905 74.4183486056601 0 0 1
5843 16 16 0.0115316 88.48443871652154 74.14702205459582 75.18515277172851 0 0 1
5847 16 16 0.0499437 89.88316666868684 73.69986910715616 73.11221389158518 0 0 1
5850 16 15 0.0411931 89.49438834459971 72.38355355651645 72.5521191164615 0 0 1
5844 16 16 0.0208382 89.88565728592454 73.82274235798951 74.58348465123292 0 0 1
6533 2 13 -0.244973 85.03051118442336 73.49473545135574 71.15327614290156 0 0 1
6529 2 14 -0.329391 86.54392260098939 74.23218180994446 70.99113107241195 0 0 1
5856 16 17 0.19832 89.5355761258032 72.27219794826682 71.48511951579961 0 0 1
5746 9 17 0.155261 85.28049837089996 71.07115778594478 71.99223445764372 0 0 0
5745 9 15 -0.0489875 85.00976151650211 71.60407458118118 73.95316248191133 0 0 0
5855 16 18 -0.302463 89.27073126048957 71.39575586422801 73.28913317952758 0 0 1
5848 16 17 0.204311 90.45481793254991 73.03335429263451 74.96086238954689 0 0 1
5849 16 17 0.216207 90.53237175071592 74.73312371753153 74.72500981781684 0 0 1
5742 9 16 -0.0383313 85.90016817699212 70.99835519604157 72.91080061347617 0 0 0
5842 16 15 -0.0438828 87.90849352115596 73.00172339643481 76.00414406055197 0 0 1
5747 9 17 0.155307 86.79895740344902 71.66273350323848 72.77228932127073 0 0 0
5853 16 18 -0.423978 88.23630777579086 71.82208163145745 75.741094761286 0 0 1
6654 10 6 0.417 84.52238008068448 76.47835853319424 73.31446454789709 0 0 1
6531 2 14 -0.121602 87.80577994600188 76.4142731433283 72.63270852435488 0 0 1
5845 16 17 0.185231 88.67780296103743 74.96907193149153 75.893671182379 0 0 1
6536 2 13 -0.13131 88.90666229739583 76.63016185792915 73.87230096869756 0 0 1
6455 2 13 -0.192474 87.55021592713837 73.1384587610712 70.31343771573498 0 0 1
6580 2 5 0.351668 87.41099359384073 75.84591639380868 108.84678185385812 0 0 0
5851 16 17 0.230006 90.86205375030964 74.07299043269153 72.77324158220462 0 0 1
6104 33 17 0.175738 91.5097524211538 71.51471274609871 70.69389583256677 0 1 0
6456 2 13 -0.129703 91.64901946943192 75.989029085271 71.28169322235985 0 0 1
6525 2 13 -0.197378 92.80563663302112 73.50723602468551 74.7998788513603 0 0 1
6449 2 13 -0.209709 92.83450883379847 73.55203605387715 71.9308025863523 0 0 1
6460 2 13 -0.260075 95.01787553910648 73.47051351179526 73.34840172197336 0 0 1
6537 2 14 -0.324904 93.51083782431486 73.99433767906203 73.37598102934611 0 0 1
6527 2 13 -0.154084 93.34606767007031 75.66554870958642 73.35065338731303 0 0 1
6607 2 5 0.405629 93.60405596234834 76.35853524239147 72.75721451593368 0 0 1
6583 2 5 0.25463 95.48032482231402 73.95592309234418 72.67513079867108 0 0 1
6590 2 5 0.370517 95.66375690921967 75.83022285926074 70.72078624520081 0 0 1
6451 2 14 -0.207204 92.26330058043848 74.5166085697558 70.76662893111185 0 0 1
6480 2 13 -0.162306 96.37461491220074 75.23561262848116 70.59820834532435 0 0 1
6100 33 17 0.154273 92.34025389527054 71.4165126950485 72.99480423471189 0 1 0
6103 33 17 0.17572 93.09277739844022 71.3491505592615 70.5891617124313 0 1 0
6099 33 16 -0.0477614 92.26564294461525 70.72078618718437 70.9944351880993 0 1 0
6471 2 13 -0.161829 95.10966783784909 76.24488867017375 75.62472295358587 0 0 1
6589 2 5 0.283072 96.76834895305355 74.44263040858507 74.31949754805888 0 0 1
4490 7 1 0.134128 96.44661801883781 71.0447370775297 75.61934800254768 0 1 0
6524 2 14 -0.427266 92.74984199479884 73.88255750063757 76.39132485965527 0 0 1
6472 2 14 -0.247664 96.47049849780066 76.5018300842611 74.67812239491606 0 0 1
6098 33 16 -0.040783 92.33278741022453 70.52054102273333 72.50674760914535 0 1 0
6608 2 5 0.290593 94.84205652887496 74.17131058687791 76.53430082981461 0 0 1
4483 7 1 0.125367 93.48326925809067 70.6143753479996 75.6936836469939 0 1 0
1399 2 4 -0.0615303 96.82138066587933 71.21955588920319 71.86053500102524 0 0 1
1404 2 9 0.162731 96.91167699102621 72.42207088237524 73.3210941401183 0 0 1
1401 2 7 0.157148 95.86273885911137 71.7545120226714 71.77198366988395 0 0 1
1397 2 10 0.140102 97.82226067087895 72.42294402135646 70.47263114653452 0 0 1
1398 2 3 -0.0480192 97.66053228605732 71.33677190714116 70.60847262966895 0 0 1
1400 2 1 0.142499 98.60181305711242 70.84374761887426 70.67095333024594 0 0 1
6476 2 13 -0.213995 97.37670100897705 75.13781575750751 74.57694081259233 0 0 1
1415 3 4 -0.0783278 100.73063529534123 74.35788694968053 71.94264628633978 0 0 0
1423 3 1 0.133069 101.0031171762852 72.92594205548762 73.60966870419372 0 0 0
1421 3 3 -0.055638 100.74254071321246 72.96390177154771 72.58017695807757 0 0 0
1422 3 4 -0.0767919 101.61207565605726 72.0099306981574 71.78758933205206 0 0 0
1418 3 12 -0.404731 102.07580040544437 74.90004946092986 72.18783912761172 0 0 0
1420 3 10 0.128945 99.67787181615456 72.54076950294358 72.58692920356245 0 0 0
1430 3 1 0.128837 102.07847756805465 70.77580226533033 73.586286460999 0 0 0
1417 3 7 0.1564 100.69293506748991 74.12280992265394 70.87881793644239 0 0 0
1424 3 7 0.157616 102.54887784868792 72.47497440353482 71.58085627435915 0 0 0
1669 3 7 0.142074 99.88635012778633 75.2373839513213 75.65151708021992 0 0 0
1425 3 12 -0.406323 101.0049582325714 71.8157491915834 70.52685675842747 0 0 0
1413 3 10 0.135788 98.62815281419599 74.92554519353192 72.16627960422846 0 0 0
1416 3 1 0.132284 99.57652342759712 75.59815254790533 73.40974031255712 0 0 0
1414 3 3 -0.038993 99.63287003870283 75.35148979272337 72.31362144916807 0 0 0
1419 3 9 0.136011 102.55971049347056 74.50685981225746 71.40819329609778 0 0 0
1428 3 3 -0.0565165 101.81038754719589 70.66829687773988 72.48070830942554 0 0 0
1665 3 10 0.130005 102.0935032869259 75.17743074887889 75.30587482185135 0 0 0
1426 3 9 0.145049 101.7736572941061 71.70238934805079 109.10478884452962 0 0 -1
1407 3 4 -0.0557615 99.91432389208138 76.70706953176325 71.66473493420523 0 0 0
1666 3 3 -0.0598718 101.9135738621284 74.85342543036148 76.35199622276677 0 0 0
1411 3 12 -0.391793 100.52511790939374 76.59361535843088 70.36169228753946 0 0 0
1405 3 10 0.150332 97.83746323072056 77.02006882619975 71.07513339647214 0 0 0
1402 2 12 -0.39305 97.42522180160022 71.65949730687927 73.05503173535402 0 0 1
1671 3 9 0.140544 99.69764689328542 73.2115012621167 76.24590362173811 0 0 0
1432 3 12 -0.397742 103.51572583803858 70.5195585874342 70.86436106106375 0 0 0
1663 3 12 -0.404822 102.21531285591638 72.51976900159482 75.77145402725306 0 0 0
1664 3 9 0.14206 101.24716366023478 72.49383100190511 75.95230975199104 0 0 0
1412 3 9 0.138998 101.43877569241607 76.31691629573308 70.5277320617634 0 0 0
1571 3 7 0.162738 110.05569517233225 74.4540703513359 70.94022509838237 0 0 0
1454 3 9 0.141219 71.43789730576026 70.89442369828241 73.38890914350756 1 0 0
1573 3 9 0.149242 109.70938572667399 74.27270393618203 72.88484133128081 0 0 0
1657 3 9 0.141362 104.44434800168233 75.65551893669513 74.73270841729446 0 0 0
1459 3 7 0.154159 109.91571251652942 71.2755636450118 70.87788067474371 0 0 0
1655 3 7 0.155298 104.0749186867915 73.63974859861467 74.77821866195043 0 0 0
1453 3 12 -0.398175 109.70716293909832 70.89645438648388 73.2306482928133 0 0 0
1570 3 1 0.131776 108.10424754405926 73.28207484869023 70.58637295557969 0 0 0
1564 3 7 0.154229 106.98161197438387 73.98975968076434 72.52334261659729 0 0 0
1647 3 1 0.13146 108.757105971015 73.09678223120666 74.4896148258062 0 0 0
1562 3 4 -0.0808601 106.747158095297 74.49853075177194 71.62711948905373 0 0 0
1561 3 3 -0.0508671 105.42687956403026 73.83761886944009 71.12119444234258 0 0 0
1563 3 1 0.132936 104.75510442502986 73.7754573020417 71.98608542309402 0 0 0
1560 3 10 0.131579 105.71260714875703 72.78780362202403 70.95578822374405 0 0 0
1568 3 3 -0.0414408 107.95314537916892 74.35904116323853 70.70205370351827 0 0 0
1656 3 12 -0.405975 105.07753000501526 75.34987598714129 75.32521111000489 0 0 0
1653 3 4 -0.08256380000000001 104.78884372661716 73.93624405409972 75.55315952253612 0 0 0
1654 3 1 0.127856 106.23173539077739 73.24032343172757 74.11121926371558 0 0 0
1652 3 3 -0.0585401 106.0905456049365 73.16774032240528 75.22067215106104 0 0 0
1648 3 7 0.147563 107.4698593622812 74.8117807176849 75.3319357496931 0 0 0
1569 3 4 -0.0739795 109.18723688978656 75.04245996431898 71.21913289641832 0 0 0
1572 3 12 -0.405744 109.20509282113204 75.0721367267944 72.64721666874482 0 0 0
1445 3 7 0.16073 107.41602798384343 70.65172423571585 73.74898300181812 0 0 0
1565 3 12 -0.396583 106.42687938606667 75.88466026499789 71.98751918914425 0 0 0
1440 3 9 0.138897 104.0487852214257 71.19606434005605 72.74106446595434 0 0 0
1439 3 12 -0.410749 104.94637853221208 71.0666120276037 72.9862944150963 0 0 0
1557 3 7 0.154605 104.00737837732193 75.25047433643513 70.54294289143327 0 0 0
1645 3 3 -0.0654121 108.60879133930499 73.07451123533177 75.5630022971518 0 0 0
1646 3 4 -0.08624030000000001 107.35361485058345 73.87539592502858 75.79944260350463 0 0 0
1457 3 4 -0.0831282 109.5978652985496 70.32603914751228 70.42406512261397 0 0 0
1566 3 9 0.158597 106.48632443798375 76.37558456894791 71.13598128668936 0 0 0
1651 3 10 0.132258 105.95353791033956 72.08114655446366 75.32155048982823 0 0 0
1575 3 3 -0.0495991 109.31999878545379 76.56085395007096 70.86982026167787 0 0 0
1642 3 12 -0.399839 110.00119907789451 75.00102727993776 76.11239879766669 0 0 0
1644 3 10 0.130649 108.36813894784794 71.96079287045113 75.75784805620404 0 0 0
1639 3 4 -0.08859740000000001 109.85762986588009 73.57786469898653 76.37450924313274 0 0 0
759 2 9 0.143973 74.58223523616263 77.76375527907669 74.19223050993028 1 0 0
758 2 12 -0.408103 75.3632534344359 77.70365752697423 74.64819991774075 1 0 0
766 2 9 0.141187 75.72911070084066 78.10175382006418 71.7554200861624 1 0 0
764 2 7 0.157618 74.42116721555696 79.19649881550993 72.74939602321157 1 0 0
762 2 4 -0.0838385 75.42110896954777 79.70039459185799 72.72931142920973 1 0 0
761 2 3 -0.0506573 75.81978378619849 80.0465518667279 74.150220434631 1 0 0
768 2 3 -0.0499421 75.40716913959847 80.84665088970253 71.7368994026002 1 0 0
770 2 1 0.132107 74.74307273621055 81.67395861023118 72.04630287839721 1 0 0
767 2 10 0.129446 76.42459771054017 81.37592291837232 71.66395144068139 1 0 0
763 2 1 0.132739 75.38451849163691 80.99699984649618 74.49450789791393 1 0 0
755 2 4 -0.0836069 75.4147031443512 78.99452870711255 75.16004744927037 1 0 0
2934 5 12 -0.400671 72.5798471927975 81.44201824625193 73.72875474279066 1 0 0
765 2 12 -0.401155 76.29183381296883 78.68043317125752 72.21685540188656 1 0 0
756 2 1 0.127729 73.43271120984325 79.47534267068704 75.03092044945792 1 0 0
2935 5 9 0.149356 73.31364894558811 82.03028041484703 73.77181807656905 1 0 0
754 2 3 -0.0582384 74.1171648356961 79.46323490324627 75.83417109278304 1 0 0
2933 5 7 0.152333 71.71382334471315 82.7219237498637 72.29150037609989 1 0 0
2931 5 4 -0.08179649999999999 71.5486938366731 82.29820374613674 73.30061890098837 1 0 0
773 2 9 0.147018 73.92168262579781 78.88292446995627 70.9359488451123 1 0 0
772 2 12 -0.404861 73.76926303219449 79.62128088080406 70.40197928950786 1 0 0
769 2 4 -0.08050359999999999 74.99290122713651 80.26502480005074 70.34727160294241 1 0 0
753 2 10 0.131191 74.29257778543774 80.52826948255289 76.25332474712533 1 0 0
771 2 7 0.158305 75.77640095603239 79.54540760111634 70.01750296457972 1 0 0
760 2 10 0.128331 76.88287261711079 80.32738169734758 73.99580114351379 1 0 0
778 2 7 0.158291 72.93629383657034 81.89081020912033 69.99941886025773 1 0 0
6662 13 6 0.417 77.50050154043531 78.32796044024259 74.38080458124675 0 0 0
844 2 10 0.129399 74.30029951853544 83.47338672638158 75.9402247181257 1 0 0
2937 5 3 -0.0524954 71.54683507040389 83.53768884703808 74.11162965497522 1 0 0
2936 5 10 0.136023 71.70842519160753 83.31932844865129 75.19075219758551 1 0 0
757 2 7 0.153625 76.20600453358092 78.96732195456192 75.90925995298491 1 0 0
750 2 7 0.161323 73.79627061923703 77.34015583722378 76.4678022255021 1 0 0
6661 13 11 -0.834 78.31364905601356 77.90401163526765 74.50950650356299 0 0 0
4149 6 10 0.132945 80.33957793263335 76.84990795566742 73.7254883173532 0 1 1
5960 23 18 -0.407668 78.74620208796675 81.85487572552009 73.16567514793076 0 0 0
5949 23 16 -0.0477614 79.57560123529595 80.48499807054321 70.88282341379907 0 0 0
6559 2 13 -0.182655 83.72224893240536 78.70092574373373 73.21536372045492 0 0 1
5952 23 16 -0.0383338 80.51836704127666 80.77251713580996 72.02435909585344 0 0 0
5957 23 17 0.155305 80.94423887409113 79.87185922608305 72.4384336262853 0 0 0
5955 23 15 -0.0489871 79.9396167053616 81.55820953485522 73.20317732824651 0 0 0
5954 23 17 0.175732 79.09217828827958 81.4348901650813 70.57325059147345 0 0 0
6567 2 13 -0.274947 82.93392194836855 80.266856827339 75.28370148124414 0 0 1
5953 23 17 0.175717 78.79702414854607 79.78849855702735 71.26831518159393 0 0 0
5956 23 17 0.15526 81.34914317400704 81.35320071119038 71.5042652545403 0 0 0
5961 23 17 0.147096 80.63955843329542 81.94383417460885 73.94985384304275 0 0 0
6623 2 5 0.225259 82.94135528175781 79.58548620733023 75.92773651917126 0 0 1
6560 2 13 -0.197203 83.19357618765244 79.60951022260635 70.70013661855113 0 0 1
6566 2 14 -0.400317 84.13135057145672 80.0227628349398 74.11958192779069 0 0 1
5951 23 17 0.154276 80.55867248444832 78.757262081938 70.05160904585446 0 0 0
5646 2 17 0.1471 82.58426644717497 83.13720135365186 70.48982854942435 0 0 0
3568 6 10 0.129108 80.17983103859227 78.43691969575983 76.6477304162693 0 0 0
6620 2 5 0.277127 83.89197405867736 80.1969155260267 71.15259280317979 0 0 1
4231 7 1 0.133167 83.70421371497008 83.4914241686478 74.36065517456872 0 0 0
6568 2 13 -0.213305 84.44542169560646 81.33193441209558 73.11176532332294 0 0 1
6619 2 5 0.292612 84.39132181575683 78.56044916241447 72.52499790734706 0 0 1
6522 2 13 -0.230571 89.92291451226441 76.87954304775162 76.49543052142381 0 0 1
5711 7 17 0.154276 85.01314771199698 76.98017070777722 75.78917031476243 0 1 0
6532 2 13 -0.125438 88.99582473462979 76.66309704862155 71.4889599166317 0 0 1
6565 2 13 -0.156699 84.60843912970557 77.31407905661601 70.63900108138354 0 0 1
6624 2 5 0.261995 85.25993476108346 81.19890457231165 72.56069557063196 0 0 1
6622 2 5 0.321426 85.53950665516479 77.52930162980465 70.88527292051131 0 0 1
6610 2 5 0.374922 89.34376643700958 77.5049035910699 73.706113198964 0 0 1
6521 2 13 -0.14549 86.82313426536949 77.57050977049211 73.16284337544279 0 0 1
6561 2 13 -0.223909 85.52330041382339 79.52262783601813 74.78719555307288 0 0 1
6520 2 13 -0.156748 87.54999912662811 78.18700165570873 75.6683293208627 0 0 1
6556 2 14 -0.342321 86.95754841087793 78.80596280561659 74.26136745562734 0 0 1
6564 2 13 -0.171251 87.96058954179594 79.74202760802535 73.27700325008708 0 0 1
6424 2 14 -0.162559 88.25242272809223 80.53426737706145 71.80220843996364 0 0 1
6572 2 5 0.291926 86.74661225776528 82.18120643531843 74.00356296557266 0 0 1
6429 2 13 -0.175616 88.22497366801122 82.21245567836628 72.01851538601325 0 0 1
6445 2 13 -0.211213 88.64560305778349 81.90646491085086 75.38551967661523 0 0 1
6575 2 5 0.297977 88.78502243461504 81.3646998555089 74.63086537016979 0 0 1
6426 2 13 -0.114965 89.88022887860215 80.20702700589145 71.22670969757044 0 0 1
6612 2 5 0.345201 90.05041678475342 79.15352970302547 74.96668791526642 0 0 1
6563 2 13 -0.173454 87.1077801901554 80.00218679180652 70.688656555187 0 0 1
6540 2 13 -0.173534 89.79650026887029 79.30228304903402 75.88173803860614 0 0 1
4221 7 10 0.135882 85.30699433652993 82.0945138475519 75.62483256600366 0 0 0
6530 2 14 0.019132 90.57092811225792 77.22372827912855 71.1895093223252 0 0 1
6569 2 5 0.333459 90.85377419893118 83.29650913155106 71.66644082043982 0 0 1
4224 7 1 0.132349 85.96098972494892 83.2589127514384 76.67162296874744 0 0 0
4213 7 10 0.15038 86.79234243909357 80.6539337097389 76.3138152894773 0 0 0
6437 2 13 -0.214013 86.50861852368219 83.00415397230006 73.62227711683474 0 0 1
6444 2 14 -0.382168 89.55288331482323 83.30764990237722 75.32469266511181 0 0 1
4222 7 3 -0.0388572 85.16817395347638 82.54631804182657 76.67410443880507 0 0 0
6588 2 5 0.348823 94.29291863264251 76.61757655243476 75.2529983823735 0 0 1
6519 2 14 -0.344013 91.52888198191069 76.87837081782864 76.29512935038774 0 0 1
6475 2 13 -0.192463 95.98377666387536 77.11621035485263 73.18517215484333 0 0 1
6431 2 13 -0.219113 91.12925937734784 82.8648462976892 75.31423397958183 0 0 1
6535 2 13 -0.112729 91.34266448127757 78.32019703252388 72.25501953900168 0 0 1
6523 2 13 -0.1665 92.08237341441978 77.59478705001847 74.87345953344247 0 0 1
6542 2 13 -0.147317 91.96279201182703 80.28559741817355 74.33005742955561 0 0 1
6547 2 14 -0.126534 92.22766459154234 78.74402882970168 73.61420784815749 0 0 1
6549 2 13 -0.163122 93.84560830654343 78.8491332038636 73.21233278195017 0 0 1
6546 2 14 -0.352467 95.30601691330114 78.41345075617713 72.42020358970937 0 0 1
6617 2 5 0.339642 95.26124819075929 80.6872002541315 74.35675813894719 0 0 1
6553 2 13 -0.184426 95.74798946270866 81.01562235014173 75.19672471774858 0 0 1
6423 2 14 -0.358764 92.37380995231518 81.80772988274296 74.91526449696165 0 0 1
6541 2 13 -0.159786 93.37482461215632 81.62644268043314 76.2270994120845 0 0 1
6434 2 13 -0.193059 92.99271748253129 82.59945996642779 73.62628576382455 0 0 1
6432 2 13 -0.111598 92.50580110846113 81.42966576714089 71.18406369190873 0 0 1
6616 2 5 0.273029 95.44007547204095 82.44566143542552 73.03193100995892 0 0 1
6551 2 13 -0.147807 96.48102487419047 79.64695828912456 72.38755839714234 0 0 1
6550 2 13 -0.217264 96.3903050513321 82.39936142435793 72.84828885919313 0 0 1
6473 2 13 -0.190752 94.7062114489626 78.18951558252492 70.82309716701668 0 0 1
6425 2 14 -0.13769 92.91129225651845 82.83380030428562 72.00383414561315 0 0 1
6618 2 5 0.307446 94.21734043597716 78.77142267825249 75.84252417631609 0 0 1
6421 2 14 0.0312522 91.31761218972345 80.52505700544143 70.32189073995936 0 0 1
6545 2 13 -0.208274 96.41286103967951 81.4568383065628 70.36432170405634 0 0 1
6587 2 5 0.243788 96.74564830393265 78.45847972363802 75.50598704890633 0 0 1
6548 2 14 -0.238986 96.9483043630305 81.1672786907568 71.94418272967262 0 0 1
6615 2 5 0.30688 95.45150618514961 81.54021583552938 70.29369313433138 0 0 1
6552 2 14 -0.341081 94.81003878590305 80.83469605004771 76.55505771516732 0 0 1
6470 2 13 -0.251604 97.37673867528076 77.70952932935766 75.40850633658273 0 0 1
2900 5 9 0.134882 101.56067852386549 77.42430826248788 73.62164210512103 0 0 0
1410 3 7 0.163793 100.60136534792352 77.26886848029145 72.28326619430845 0 0 0
1409 3 2 0.143715 98.99302472028968 78.33514932905318 70.85259493499558 0 0 0
1408 3 1 0.151333 98.26035632670987 78.05563962455082 72.4265884565852 0 0 0
2899 5 12 -0.413661 101.56283656442615 77.46248167509586 74.59925046128133 0 0 0
1406 3 3 -0.0481431 98.67145745660036 77.55155350062692 71.49813240244643 0 0 0
2887 5 10 0.132488 98.07230986526764 81.41382922191848 74.35956258004975 0 0 0
2894 5 10 0.126908 99.53517806183726 79.17605223945837 74.05030989805257 0 0 0
2898 5 7 0.149971 101.99197103839518 79.3800779276802 74.06453036197212 0 0 0
6543 2 13 -0.195878 98.6487891187908 81.19382790738344 71.91398867634348 0 0 1
2896 5 4 -0.0864394 101.5330596144532 78.84395996682258 74.88411737951735 0 0 0
2895 5 3 -0.0564775 100.0107508233293 79.36821916824648 74.97090556947761 0 0 0
6613 2 5 0.32345 99.05270089419872 80.58061023696305 71.25745343462138 0 0 1
2889 5 4 -0.09139360000000001 100.033035594968 80.91683402706266 75.1481661029514 0 0 0
2892 5 12 -0.401848 100.81133482273466 81.44421233307838 74.0173485464294 0 0 0
2893 5 9 0.1466 100.15402291268175 81.40856178608149 73.26986955812332 0 0 0
2888 5 3 -0.0552779 98.61592439453507 81.53872831259365 75.29307015952782 0 0 0
2866 5 10 0.129087 102.98410878382252 82.86785188830078 74.64851834584414 0 0 0
2856 5 7 0.161449 103.32847381884136 80.82616825282881 72.62193173301422 0 0 0
2882 5 4 -0.0772716 98.67957705530415 83.01912859484078 75.77980721367875 0 0 0
2884 5 7 0.157842 97.61114096843605 83.35152742810011 75.86576916449603 0 0 0
2869 5 1 0.133519 102.59127704474469 83.06908016515924 72.89955437808382 0 0 0
2890 5 1 0.132047 98.0717646050368 80.88052198949636 76.0152239564397 0 0 0
2905 5 7 0.154668 103.56624685633926 77.27513556958166 75.93557362740545 0 0 0
2902 5 3 -0.0613055 102.37094259568994 79.07749838493538 76.15538431292569 0 0 0
2897 5 1 0.132131 99.42608321579576 78.86871262113141 75.77822976316716 0 0 0
2904 5 1 0.132502 102.54934220692122 80.18742832509322 76.27375225613744 0 0 0
5704 6 17 0.148704 100.22785695251295 82.92826839565822 70.47107304470691 0 0 0
1574 3 10 0.125528 71.13798534826202 76.86605326132663 71.21850144430285 1 0 0
2932 5 1 0.12949 109.43214051627169 80.73610738636174 72.62216102461267 0 0 0
2903 5 4 -0.0822563 103.72741816096655 78.34195948531178 76.0395606358987 0 0 0
2858 5 9 0.141305 104.12326897379815 82.73873939219993 71.45164593675472 0 0 0
2907 5 9 0.154578 104.38755313305151 77.96603755514406 74.25911709574565 0 0 0
2926 5 7 0.149711 110.07590125032961 80.56789561096635 75.33605211307903 0 0 0
1577 3 1 0.142668 108.6174598610402 77.18734590697642 71.4495737628351 0 0 0
2930 5 3 -0.053367 109.39746292244959 81.50064176047786 73.44961163389684 0 0 0
2906 5 12 -0.397398 104.44456139540023 78.72182969465581 74.89050829344282 0 0 0
2852 5 10 0.134441 104.71936176552799 78.87128968278557 72.26708868314205 0 0 0
2853 5 3 -0.049812 104.76915125333545 79.64291572086276 71.48992115462462 0 0 0
2854 5 4 -0.0748013 104.27499372348242 80.97766251881167 72.11380170049011 0 0 0
2862 5 1 0.128273 105.05063822619266 81.0312027474324 74.12870923930836 0 0 0
2915 5 10 0.131527 106.43174842105323 77.68777339905702 75.2498901146962 0 0 0
2851 5 9 0.146283 107.58642257515037 80.53267402418261 71.49336085036624 0 0 0
2850 5 12 -0.402539 107.25122317400209 79.61025959534902 71.73421100588185 0 0 0
2923 5 3 -0.0598328 108.16344964833351 79.5915133134154 74.78056191147112 0 0 0
2922 5 10 0.125811 107.25962024291323 79.8969848377824 74.20339041754133 0 0 0
2929 5 10 0.132279 108.52011486738176 82.19029939629574 73.31296762755453 0 0 0
2924 5 4 -0.078738 109.12602989775706 80.85767247871618 74.79319520437427 0 0 0
2925 5 1 0.13172 108.6463195368387 78.74015626796562 74.28451169992714 0 0 0
2859 5 10 0.129605 106.23720031168938 81.58660864325344 72.97604615910899 0 0 0
2927 5 12 -0.395105 108.44277160559648 81.80619107956944 75.55503912406972 0 0 0
2860 5 3 -0.0578464 105.13306635327159 81.62575200734982 73.18313734187942 0 0 0
2842 5 7 0.149069 107.163340932077 81.93984657832846 71.20060977159031 0 0 0
2847 5 4 -0.07922990000000001 106.14921040787132 79.50776543752542 70.83563098565234 0 0 0
2917 5 4 -0.0853247 107.65008202158177 79.30108871927787 76.20831839003087 0 0 0
2928 5 9 0.156789 108.53808159352003 81.55247339267599 76.45659630530452 0 0 0
2861 5 4 -0.0827392 104.74716712370633 83.15810854214665 73.42266239697402 0 0 0
2919 5 7 0.154832 106.90810987942638 80.20192476072843 76.37400907689828 0 0 0
2844 5 9 0.138862 109.10337576527903 82.17200990245534 70.21702444477924 0 0 0
2857 5 12 -0.398088 104.08434298769544 81.86713561730856 71.0680364941339 0 0 0
2855 5 1 0.132146 104.11764767724443 79.29917374984933 70.67549924121072 0 0 0
2840 5 4 -0.089383 107.36796761051312 81.70594162814655 70.19460916403926 0 0 0
2916 5 3 -0.0520788 106.84309771570665 77.96055917797815 76.20425363009169 0 0 0
2918 5 1 0.127251 107.66177654753821 77.19896015207524 76.29163664673952 0 0 0
2849 5 7 0.160722 106.14905440359291 78.53518883933752 70.37281629651821 0 0 0
2843 5 12 -0.410832 108.71049937594583 81.31990598263674 70.05786776366322 0 0 0