LAMMPS data file via write_data, version 15 Sep 2022, timestep = 0

6084 atoms
14 atom types
6080 bonds
11 bond types
11116 angles
19 angle types
17688 dihedrals
20 dihedral types

-8.456496 171.543504 xlo xhi
2.851498 182.851498 ylo yhi
-0.849498 179.150502 zlo zhi

Masses

1 1.00794
2 1.00794
3 12.0107
4 12.0107
5 1.00794
6 1.008
7 1.00794
8 1.00794
9 1.00794
10 1.00794
11 15.999
12 15.9994
13 15.9994
14 28.085501

Pair Coeffs # lj/cut

1 0.038 2.44997
2 0.038 2.44997
3 0.039 3.87541
4 0.039 3.87541
5 0.038 2.44997
6 0 1
7 0.038 2.44997
8 0.038 2.44997
9 0 0
10 0.038 2.44997
11 0.1521 3.1507
12 0.228 2.85978
13 0.228 2.85978
14 0.04 4.05343

Bond Coeffs # harmonic

1 340.618 1.105
2 340.618 1.105
3 322.716 1.526
4 340.618 1.105
5 340.618 1.105
6 340.618 1.105
7 384 1.42
8 540.634 0.96
9 450 0.9572
10 540.634 0.96
11 392.8 1.665

Angle Coeffs # harmonic

1 39.5 106.4
2 44.4 110
3 39.5 106.4
4 44.4 110
5 39.5 106.4
6 46.6 110.5
7 44.4 110
8 44.4 110
9 70 109.5
10 46.6 110.5
11 44.4 110
12 58.5 106
13 33.3 113.4
14 55 104.52
15 39.5 106.4
16 57 109.5
17 57 109.5
18 42.3 113.1
19 31.1 149.8

Dihedral Coeffs # harmonic

1 0.158 1 3
2 0.158 1 3
3 0.158 1 3
4 0.158 1 3
5 0.158 1 3
6 0.158 1 3
7 0.158 1 3
8 0.13 1 3
9 0.158 1 3
10 0.158 1 3
11 0.158 1 3
12 0.158 1 3
13 1 1 3
14 0.13 1 3
15 0.13 1 3
16 0.158 1 3
17 0.158 1 3
18 0.158 1 3
19 0.158 1 3
20 0.3 1 3

Atoms # full

6073 17 11 -0.834 152.729 28.578 1.05 0 0 0
6074 17 6 0.417 152.607 29.469 0.721 0 0 0
6075 17 6 0.417 152.112 28.049 0.546 0 0 0
6043 7 11 -0.834 37.92 142.241 7.691 0 0 0
6044 7 6 0.417 37.375 141.941 8.419 0 0 0
6045 7 6 0.417 37.351 142.828 7.193 0 0 0
6070 16 11 -0.834 16.719 39.757 15.081 0 0 0
6071 16 6 0.417 17.227 40.403 14.59 0 0 0
6072 16 6 0.417 16.683 38.992 14.507 0 0 0
562 1 10 0.140034 152.707 93.001 16.054 0 0 0
563 1 3 -0.0583943 152.444 93.454 17.077 0 0 0
565 1 1 0.129592 152.324 94.396 16.684 0 0 0
567 1 12 -0.399698 150.312 93.029 16.321 0 0 0
568 1 9 0.138431 150.04 93.942 16.334 0 0 0
560 1 12 -0.395727 154.762 92.985 17.131 0 0 0
6040 6 11 -0.834 70.478 52.712 18.762 0 0 0
6041 6 6 0.417 69.828 53.114 18.186 0 0 0
6042 6 6 0.417 70.411 51.775 18.582 0 0 0
688 1 10 0.132342 128.031 74.796 22.264 0 0 0
689 1 3 -0.0515152 128.507 74.398 21.276 0 0 0
690 1 4 -0.0667876 127.493 74.546 20.134 0 0 0
691 1 1 0.137434 128.644 73.315 21.464 0 0 0
692 1 7 0.159455 127.937 74.173 19.198 0 0 0
695 1 10 0.141641 125.816 74.189 21.429 0 0 0
696 1 3 -0.0458754 126.215 73.792 20.49 0 0 0
697 1 4 -0.059172 125.155 73.752 19.358 0 0 0
698 1 1 0.143989 126.432 72.687 20.632 0 0 0
699 1 7 0.158726 125.468 73.141 18.461 0 0 0
701 1 8 0.159898 124.23 73.248 19.674 0 0 0
669 1 4 -0.0840061 133.871 74.794 22.29 0 0 0
672 1 12 -0.40893 134.795 74.782 21.204 0 0 0
674 1 10 0.134375 133.233 72.789 22.148 0 0 0
675 1 3 -0.0577961 132.8 73.743 21.979 0 0 0
676 1 4 -0.0800006 131.483 73.854 22.778 0 0 0
677 1 1 0.133448 132.643 73.796 20.906 0 0 0
679 1 12 -0.409672 130.716 72.683 22.731 0 0 0
680 1 9 0.134822 131.299 71.944 22.93 0 0 0
685 1 7 0.157324 130.452 74.287 20.505 0 0 0
673 1 9 0.134476 135.733 74.617 21.523 0 0 0
693 1 12 -0.39586 127.291 75.907 19.913 0 0 0
694 1 9 0.152357 128.156 76.244 19.899 0 0 0
700 1 12 -0.392013 124.804 75.102 19.007 0 0 0
702 1 9 0.159912 125.569 75.653 19.276 0 0 0
671 1 7 0.147162 133.355 75.745 22.517 0 0 0
681 1 10 0.131293 131.345 75.999 22.588 0 0 0
682 1 3 -0.0563905 130.637 75.144 22.453 0 0 0
683 1 4 -0.084925 129.881 75.027 21.114 0 0 0
686 1 12 -0.400107 129.917 76.286 20.493 0 0 0
687 1 9 0.138354 130.476 76.815 21.005 0 0 0
660 1 10 0.138426 137.178 75.726 22.606 0 0 0
663 1 1 0.137596 135.915 76.925 22.345 0 0 0
566 1 7 0.159123 151.126 91.708 17.627 0 0 0
574 1 12 -0.397215 148.673 91.902 19.108 0 0 0
575 1 9 0.146953 149.029 91.473 18.332 0 0 0
559 1 7 0.150144 153.583 92.431 18.676 0 0 0
603 1 9 0.140337 140.698 94.921 23.14 0 0 0
578 1 4 -0.0733083 146.9 94.102 20.344 0 0 0
580 1 7 0.152537 146.447 93.151 20.12 0 0 0
581 1 12 -0.395075 146.45 95.076 19.379 0 0 0
582 1 9 0.151136 146.491 95.92 19.841 0 0 0
583 1 10 0.127723 147.064 95.425 22.079 0 0 0
584 1 3 -0.0557339 146.513 94.514 21.773 0 0 0
585 1 4 -0.079431 144.986 94.511 22.109 0 0 0
586 1 1 0.128665 146.908 93.711 22.477 0 0 0
587 1 7 0.134324 144.593 93.47 22.158 0 0 0
588 1 12 -0.404243 144.33 95.362 21.163 0 0 0
589 1 9 0.143191 144.681 95.096 20.284 0 0 0
558 1 1 0.129359 153.282 94.759 19.59 0 0 0
564 1 4 -0.0805596 151.113 92.857 17.48 0 0 0
569 1 10 0.126451 150.425 94.547 18.366 0 0 0
570 1 3 -0.0592271 150.385 93.516 18.662 0 0 0
571 1 4 -0.0810898 148.887 93.246 18.877 0 0 0
572 1 1 0.126484 151.025 93.42 19.567 0 0 0
573 1 7 0.1583 148.366 93.51 17.924 0 0 0
576 1 10 0.133833 148.802 95.006 20.276 0 0 0
577 1 3 -0.0489594 148.452 93.975 20.185 0 0 0
579 1 1 0.135585 148.867 93.398 21.066 0 0 0
541 1 10 0.126994 155.134 98.398 21.481 0 0 0
542 1 3 -0.054401 156.186 98.144 21.077 0 0 0
543 1 4 -0.083835 156.148 97.044 20.02 0 0 0
544 1 1 0.129864 156.786 97.879 21.911 0 0 0
545 1 7 0.154707 155.324 97.258 19.172 0 0 0
546 1 12 -0.405263 157.453 96.972 19.431 0 0 0
547 1 9 0.144414 157.282 97.629 18.779 0 0 0
548 1 10 0.127813 155.009 95.681 21.268 0 0 0
549 1 3 -0.0564547 155.776 95.645 20.489 0 0 0
550 1 4 -0.0835057 155.36 94.497 19.558 0 0 0
551 1 1 0.128443 156.657 95.314 21.067 0 0 0
552 1 7 0.151039 155.417 93.572 20.213 0 0 0
553 1 12 -0.40092 156.46 94.349 18.685 0 0 0
554 1 9 0.150491 156.878 95.211 18.832 0 0 0
555 1 10 0.128657 154.123 95.459 18.163 0 0 0
556 1 3 -0.0583812 154.078 94.585 18.793 0 0 0
557 1 4 -0.0764172 153.701 93.263 17.963 0 0 0
561 1 9 0.157551 155.456 93.512 17.537 0 0 0
525 1 12 -0.407168 154.089 103.777 23.001 0 0 0
529 1 4 -0.0862978 155.531 101.068 22.179 0 0 0
531 1 7 0.151116 154.953 100.211 22.477 0 0 0
532 1 12 -0.396063 154.645 101.825 21.266 0 0 0
533 1 9 0.152683 154.608 102.589 21.858 0 0 0
534 1 10 0.131352 157.43 100.211 22.338 0 0 0
535 1 3 -0.0463047 156.832 100.563 21.523 0 0 0
536 1 4 -0.0760266 156.784 99.433 20.499 0 0 0
537 1 1 0.13102 157.33 101.49 21.142 0 0 0
538 1 7 0.157359 157.793 99.285 20.118 0 0 0
539 1 12 -0.399617 155.992 100.003 19.471 0 0 0
540 1 9 0.152746 155.409 100.644 19.865 0 0 0
667 1 10 0.131991 133.999 73.978 24.367 0 0 0
668 1 3 -0.058422 134.659 74.428 23.512 0 0 0
670 1 1 0.129961 135.415 73.684 23.163 0 0 0
678 1 7 0.149562 131.784 73.946 23.861 0 0 0
662 1 4 -0.0791643 135.505 75.542 24.133 0 0 0
664 1 7 0.149027 134.758 76.303 24.458 0 0 0
684 1 1 0.131676 129.882 75.308 23.289 0 0 0
646 1 10 0.139439 135.95 80.737 25.487 0 0 0
647 1 3 -0.050438 136.967 80.756 25.772 0 0 0
648 1 4 -0.0765005 137.52 79.326 25.683 0 0 0
650 1 7 0.161116 137.172 78.686 26.518 0 0 0
651 1 12 -0.393041 138.921 79.27 25.805 0 0 0
652 1 9 0.153692 139.262 80.124 26.192 0 0 0
653 1 10 0.135564 137.114 79.365 23.546 0 0 0
654 1 3 -0.0446174 136.97 78.643 24.391 0 0 0
655 1 4 -0.0722673 137.51 77.322 23.866 0 0 0
656 1 1 0.130723 135.893 78.498 24.494 0 0 0
657 1 7 0.161998 138.32 77.557 23.162 0 0 0
658 1 12 -0.396425 138.148 76.679 24.965 0 0 0
659 1 9 0.153563 138.562 77.436 25.462 0 0 0
661 1 3 -0.0537423 136.443 76.356 23.163 0 0 0
665 1 12 -0.394985 136.169 74.983 25.241 0 0 0
666 1 9 0.154047 136.94 75.573 25.347 0 0 0
630 1 12 -0.398568 135.279 86.317 27.26 0 0 0
636 1 7 0.158828 135.257 84.465 24.994 0 0 0
637 1 12 -0.404763 135.264 83.087 26.52 0 0 0
638 1 9 0.146754 134.898 83.756 27.136 0 0 0
626 1 3 -0.0530266 137.561 86.738 27.802 0 0 0
627 1 4 -0.0806003 136.531 85.659 27.416 0 0 0
628 1 1 0.134917 138.555 86.255 27.827 0 0 0
629 1 7 0.155564 136.388 84.931 28.201 0 0 0
632 1 10 0.132866 137.977 84.347 26.402 0 0 0
633 1 3 -0.0548068 137.002 84.827 26.138 0 0 0
634 1 4 -0.0773422 135.976 83.838 25.53 0 0 0
635 1 1 0.132333 137.273 85.57 25.324 0 0 0
639 1 10 0.133809 137.348 83.637 23.849 0 0 0
640 1 3 -0.0566724 136.742 82.958 24.481 0 0 0
641 1 4 -0.0862912 137.63 81.776 24.943 0 0 0
642 1 1 0.133518 136.084 82.637 23.71 0 0 0
643 1 7 0.150156 137.985 81.242 24.108 0 0 0
644 1 12 -0.404116 138.809 82.175 25.703 0 0 0
645 1 9 0.131898 138.545 82.979 26.236 0 0 0
649 1 1 0.1381 137.004 81.215 26.8 0 0 0
631 1 9 0.149904 135.529 87.096 26.733 0 0 0
604 1 10 0.128217 141.483 92.446 25.877 0 0 0
607 1 1 0.13432 140.434 92.189 24.548 0 0 0
611 1 10 0.135141 138.523 91.777 27.978 0 0 0
612 1 3 -0.0532004 139.202 91.565 27.118 0 0 0
613 1 4 -0.0771105 138.666 90.33 26.44 0 0 0
614 1 1 0.123551 140.191 91.289 27.612 0 0 0
615 1 7 0.157308 137.575 90.591 26.146 0 0 0
616 1 12 -0.401598 139.422 90.001 25.299 0 0 0
617 1 9 0.141074 139.768 90.856 25.056 0 0 0
618 1 10 0.131398 138.323 89.248 28.345 0 0 0
619 1 3 -0.0556303 138.605 88.987 27.267 0 0 0
620 1 4 -0.078452 137.524 87.968 26.78 0 0 0
621 1 1 0.1281 139.569 88.44 27.353 0 0 0
622 1 7 0.152569 137.709 87.57 25.756 0 0 0
623 1 12 -0.400554 136.193 88.55 26.751 0 0 0
624 1 9 0.145708 136.161 89.257 27.417 0 0 0
625 1 10 0.132352 137.424 87.131 28.823 0 0 0
599 1 4 -0.079508 141.098 94.253 24.865 0 0 0
601 1 7 0.156517 141.137 94.991 25.665 0 0 0
602 1 12 -0.409369 140.206 94.846 23.944 0 0 0
605 1 3 -0.0479071 140.636 92.89 25.419 0 0 0
606 1 4 -0.0727398 139.421 92.859 26.356 0 0 0
608 1 7 0.163156 138.536 93.1 25.821 0 0 0
609 1 12 -0.409112 139.559 93.789 27.469 0 0 0
610 1 9 0.13501 139.871 94.648 27.162 0 0 0
590 1 10 0.129328 145.17 96.213 23.326 0 0 0
591 1 3 -0.0633278 144.747 95.189 23.415 0 0 0
592 1 4 -0.0826262 143.335 95.409 24.055 0 0 0
593 1 1 0.123896 145.377 94.646 24.131 0 0 0
594 1 7 0.158494 142.721 95.975 23.404 0 0 0
595 1 12 -0.402751 143.53 96.105 25.313 0 0 0
596 1 9 0.134026 144.437 95.849 25.587 0 0 0
597 1 10 0.130065 143.152 93.577 24.975 0 0 0
598 1 3 -0.0557153 142.52 94.104 24.303 0 0 0
600 1 1 0.123018 142.578 93.498 23.415 0 0 0
505 1 9 0.138029 147.705 101.982 28.865 0 0 0
506 1 10 0.125121 149.163 100.935 27.187 0 0 0
507 1 3 -0.0607613 149.957 101.018 27.956 0 0 0
508 1 4 -0.076005 150.878 102.145 27.42 0 0 0
509 1 1 0.125856 150.451 100.041 27.905 0 0 0
510 1 7 0.154174 151.694 102.485 28.104 0 0 0
511 1 12 -0.392021 149.974 103.166 27.116 0 0 0
512 1 9 0.153825 149.428 103.147 27.902 0 0 0
513 1 10 0.12854 150.66 101.69 25.304 0 0 0
514 1 3 -0.0515618 151.491 101.75 26.054 0 0 0
515 1 4 -0.0756218 152.563 102.686 25.41 0 0 0
516 1 1 0.131463 151.877 100.7 26.097 0 0 0
517 1 7 0.142767 153.205 103.177 26.186 0 0 0
518 1 12 -0.395501 151.913 103.748 24.77 0 0 0
519 1 9 0.146745 151.322 104.117 25.52 0 0 0
520 1 10 0.1339 152.974 101.403 23.676 0 0 0
521 1 3 -0.0542269 153.513 101.942 24.495 0 0 0
526 1 9 0.153701 153.196 103.977 23.335 0 0 0
522 1 4 -0.0850864 154.688 102.833 23.928 0 0 0
523 1 1 0.135108 153.904 101.166 25.128 0 0 0
524 1 7 0.154102 155.144 103.386 24.758 0 0 0
527 1 10 0.128965 156.186 101.266 24.215 0 0 0
528 1 3 -0.0562417 155.866 101.941 23.354 0 0 0
530 1 1 0.132236 156.803 102.578 23.19 0 0 0
3524 6 12 -0.402976 16.919 80.783 34.477 0 0 0
3525 6 9 0.137124 17.018 80.764 33.556 0 0 0
3519 6 10 0.137087 13.948 82.404 35.059 0 0 0
3520 6 3 -0.0365386 14.662 81.529 34.946 0 0 0
3522 6 1 0.133725 14.293 80.939 34.143 0 0 0
3531 6 12 -0.404892 14.709 84.753 34.095 0 0 0
3532 6 9 0.14591 14.76 85.681 33.924 0 0 0
3537 6 7 0.155966 15.474 86.842 32.159 0 0 0
3521 6 4 -0.0760617 16.154 81.973 34.735 0 0 0
3526 6 10 0.130172 15.811 82.579 32.668 0 0 0
3527 6 3 -0.0535046 16.336 82.907 33.568 0 0 0
3528 6 4 -0.074881 16.094 84.377 33.862 0 0 0
3529 6 1 0.13424 17.447 82.786 33.264 0 0 0
3530 6 7 0.158653 16.653 84.596 34.843 0 0 0
3533 6 10 0.132902 16.538 84.845 31.792 0 0 0
3534 6 3 -0.0546291 16.78 85.247 32.806 0 0 0
3535 6 4 -0.085443 16.423 86.776 32.777 0 0 0
3536 6 1 0.129784 17.91 85.125 32.802 0 0 0
3538 6 12 -0.396483 16.192 87.296 34.112 0 0 0
3539 6 9 0.155328 17.091 87.637 34.326 0 0 0
3540 6 10 0.129916 17.019 88.701 31.918 0 0 0
3541 6 3 -0.054335 17.435 87.715 32.163 0 0 0
3542 6 4 -0.087717 18.697 87.962 33.012 0 0 0
3543 6 1 0.132836 17.786 87.275 31.185 0 0 0
3544 6 7 0.14996 19.344 86.975 32.992 0 0 0
3545 6 12 -0.409691 18.399 88.429 34.333 0 0 0
3546 6 9 0.139517 18.794 89.289 34.455 0 0 0
3547 6 10 0.129919 19.045 89.966 32.16 0 0 0
3548 6 3 -0.0505126 19.567 88.993 32.283 0 0 0
3549 6 4 -0.0775068 20.956 89.151 33.077 0 0 0
3550 6 1 0.131173 19.847 88.694 31.247 0 0 0
3551 6 7 0.161626 20.86 88.876 34.174 0 0 0
3554 6 10 0.135412 20.468 91.236 33.478 0 0 0
3555 6 3 -0.0480363 21.364 90.622 33.109 0 0 0
3552 6 12 -0.401221 21.908 88.214 32.532 0 0 0
3553 6 9 0.147121 21.9 87.446 33.094 0 0 0
3556 6 4 -0.0730282 22.629 90.716 34.011 0 0 0
3557 6 1 0.133208 21.696 90.926 32.099 0 0 0
3558 6 7 0.162495 23.418 89.952 33.708 0 0 0
3561 6 10 0.130513 22.4 92.769 34.414 0 0 0
3562 6 3 -0.0560852 23.208 92.099 34.006 0 0 0
3563 6 4 -0.0809394 24.528 92.409 34.776 0 0 0
3564 6 1 0.129227 23.347 92.447 32.976 0 0 0
3566 6 12 -0.40577 25.579 91.48 34.372 0 0 0
3567 6 9 0.145599 26.328 91.742 34.983 0 0 0
3568 6 10 0.130023 24.189 94.47 34.426 0 0 0
3569 6 3 -0.0475754 25.034 93.825 34.519 0 0 0
3571 6 1 0.134562 25.572 93.708 33.582 0 0 0
3575 6 10 0.130643 25.385 96.552 34.976 0 0 0
3576 6 3 -0.0474357 26.284 95.968 35.122 0 0 0
3578 6 1 0.133487 26.862 95.95 34.224 0 0 0
3582 6 10 0.129253 26.803 98.562 34.636 0 0 0
3585 6 1 0.132543 28.419 97.951 34.759 0 0 0
475 1 7 0.153959 146.561 98.353 34.865 0 0 0
485 1 10 0.134192 147.408 96.931 33.153 0 0 0
480 1 4 -0.0705823 148.556 96.479 34.913 0 0 0
482 1 7 0.160373 147.915 95.618 35.035 0 0 0
483 1 12 -0.392307 149.914 96.025 35.079 0 0 0
484 1 9 0.153393 150.352 96.737 34.566 0 0 0
486 1 3 -0.0563333 148.467 96.817 33.401 0 0 0
487 1 4 -0.0917113 149.227 97.969 32.726 0 0 0
488 1 1 0.128969 148.768 95.876 32.913 0 0 0
490 1 12 -0.402996 150.564 98.084 33.052 0 0 0
491 1 9 0.143175 151.042 98.099 32.242 0 0 0
492 1 10 0.125833 147.978 97.835 30.92 0 0 0
493 1 3 -0.0600571 149.05 97.839 31.22 0 0 0
495 1 1 0.122378 149.451 96.881 30.903 0 0 0
496 1 7 0.143124 150.039 98.565 29.41 0 0 0
3597 6 3 -0.0549292 26.679 101.881 34.688 0 0 0
3598 6 4 -0.0848713 26.285 102.785 33.519 0 0 0
3599 6 1 0.132884 25.842 101.219 34.743 0 0 0
3600 6 7 0.150915 26.174 102.147 32.598 0 0 0
3601 6 12 -0.412593 27.315 103.776 33.402 0 0 0
3602 6 9 0.135455 27.345 104.216 34.267 0 0 0
3603 6 10 0.12837 24.857 104.088 34.735 0 0 0
3604 6 3 -0.0596746 24.947 103.537 33.784 0 0 0
3605 6 4 -0.0804208 24.444 104.372 32.624 0 0 0
3606 6 1 0.133449 24.235 102.712 33.995 0 0 0
3607 6 7 0.15578 24.477 103.749 31.715 0 0 0
3608 6 12 -0.39594 23.099 104.599 32.986 0 0 0
3591 6 4 -0.0897236 28.018 101.128 34.539 0 0 0
3593 6 7 0.149519 27.988 100.302 33.772 0 0 0
3594 6 12 -0.400578 28.99 102.105 34.292 0 0 0
3595 6 9 0.147291 28.505 102.721 33.686 0 0 0
489 1 7 0.148432 148.717 98.95 32.98 0 0 0
494 1 4 -0.0896473 149.674 98.932 30.363 0 0 0
497 1 12 -0.419906 150.899 99.514 30.91 0 0 0
498 1 9 0.142597 150.628 99.908 31.755 0 0 0
499 1 10 0.133492 148.353 100.585 31.037 0 0 0
500 1 3 -0.0570569 148.732 100.096 30.099 0 0 0
501 1 4 -0.0946658 149.423 101.33 29.357 0 0 0
502 1 1 0.129573 147.833 99.857 29.522 0 0 0
503 1 7 0.14874 150.274 101.638 30.011 0 0 0
504 1 12 -0.4104 148.502 102.353 29.237 0 0 0
3609 6 9 0.155363 23.274 105.413 33.431 0 0 0
3610 6 10 0.136985 24.736 106.176 31.412 0 0 0
3611 6 3 -0.0442978 25.061 105.771 32.446 0 0 0
3612 6 4 -0.0809569 24.714 106.887 33.517 0 0 0
3613 6 1 0.13803 26.224 105.778 32.439 0 0 0
3614 6 7 0.152548 24.817 106.602 34.596 0 0 0
3615 6 12 -0.396404 23.384 107.298 33.271 0 0 0
3616 6 9 0.15305 23.364 108.259 33.616 0 0 0
3617 6 10 0.132663 25.239 108.706 32.397 0 0 0
3618 6 3 -0.0502712 25.48 108.156 33.329 0 0 0
3619 6 4 -0.0836538 25.362 109.17 34.511 0 0 0
3620 6 1 0.128186 26.531 107.886 33.216 0 0 0
3621 6 7 0.155819 25.796 110.176 34.294 0 0 0
3622 6 12 -0.399091 24.016 109.361 34.846 0 0 0
6055 11 11 -0.834 149.473 126.51 29.481 0 0 0
6056 11 6 0.417 150.359 126.158 29.395 0 0 0
6057 11 6 0.417 149.204 126.27 30.368 0 0 0
3511 6 10 0.151909 12.725 79.703 35.957 0 0 0
3512 6 3 -0.0457232 13.153 80.406 36.696 0 0 0
3514 6 1 0.152957 13.076 79.868 37.632 0 0 0
3516 6 7 0.165361 15.264 80.033 36.44 0 0 0
3513 6 4 -0.0533353 14.526 80.861 36.34 0 0 0
3515 6 2 0.1452 12.367 81.188 36.616 0 0 0
3517 6 12 -0.389905 14.761 81.881 37.309 0 0 0
3518 6 9 0.140164 14 82.456 37.248 0 0 0
3523 6 7 0.157621 16.537 82.427 35.666 0 0 0
3559 6 12 -0.396826 22.281 90.358 35.385 0 0 0
3560 6 9 0.142046 21.819 91.203 35.648 0 0 0
3565 6 7 0.155409 24.378 92.29 35.914 0 0 0
3570 6 4 -0.0809422 25.941 94.464 35.581 0 0 0
3572 6 7 0.159372 26.94 93.94 35.607 0 0 0
3573 6 12 -0.398917 25.239 94.439 36.846 0 0 0
3574 6 9 0.142632 24.322 94.304 36.587 0 0 0
3577 6 4 -0.0784555 27.008 96.885 36.152 0 0 0
3579 6 7 0.159415 26.263 97.137 37.001 0 0 0
3583 6 3 -0.0504617 27.538 98.132 35.42 0 0 0
3580 6 12 -0.403128 28.088 96.152 36.753 0 0 0
3581 6 9 0.14818 27.592 95.315 36.808 0 0 0
459 1 4 -0.0738523 143.341 97.791 38.834 0 0 0
461 1 7 0.158385 144.274 97.485 39.352 0 0 0
462 1 12 -0.406479 142.293 97.118 39.515 0 0 0
463 1 9 0.14274 142.23 97.476 40.392 0 0 0
464 1 10 0.134698 142.358 97.505 37.024 0 0 0
465 1 3 -0.0521768 143.359 97.304 37.428 0 0 0
466 1 4 -0.0745539 144.421 97.82 36.472 0 0 0
467 1 1 0.130878 143.626 96.232 37.434 0 0 0
469 1 12 -0.404265 144.049 97.303 35.171 0 0 0
470 1 9 0.135736 143.666 96.423 35.228 0 0 0
471 1 10 0.137699 145.94 96.326 36.586 0 0 0
472 1 3 -0.0426466 145.847 97.416 36.732 0 0 0
473 1 4 -0.0700712 146.862 98.221 35.926 0 0 0
474 1 1 0.131214 146.005 97.474 37.841 0 0 0
478 1 10 0.140463 148.553 97.284 36.931 0 0 0
479 1 3 -0.0391973 148.285 97.621 35.899 0 0 0
481 1 1 0.143578 148.918 98.431 35.668 0 0 0
3587 6 12 -0.41056 26.556 99.769 36.867 0 0 0
3588 6 9 0.132845 26.427 100.546 36.338 0 0 0
3596 6 10 0.127705 26.678 102.372 35.665 0 0 0
3584 6 4 -0.0755127 27.811 99.288 36.408 0 0 0
3586 6 7 0.158938 28.475 98.902 37.232 0 0 0
3589 6 10 0.133588 29.495 100.094 35.55 0 0 0
3590 6 3 -0.0535143 28.509 100.512 35.843 0 0 0
3592 6 1 0.133083 28.722 101.282 36.589 0 0 0
449 1 9 0.135368 143.362 103.606 40.969 0 0 0
450 1 10 0.131233 143.872 101.663 39.784 0 0 0
451 1 3 -0.0513217 143.274 101.329 40.675 0 0 0
452 1 4 -0.0800016 143.417 99.767 40.518 0 0 0
453 1 1 0.12991 142.217 101.682 40.563 0 0 0
454 1 7 0.151574 142.619 99.291 41.127 0 0 0
455 1 12 -0.40609 144.712 99.388 40.851 0 0 0
456 1 9 0.142004 145.158 100.172 41.061 0 0 0
457 1 10 0.13201 143.809 99.905 38.3 0 0 0
458 1 3 -0.0504661 143.152 99.325 38.996 0 0 0
460 1 1 0.134962 142.033 99.661 38.801 0 0 0
468 1 7 0.160202 144.349 98.866 36.387 0 0 0
476 1 12 -0.401081 146.914 99.469 36.551 0 0 0
477 1 9 0.143197 146.534 99.437 37.451 0 0 0
3623 6 9 0.151198 23.914 109.704 35.744 0 0 0
3624 6 10 0.126552 27.083 108.386 35.512 0 0 0
3625 6 3 -0.0583349 26.078 108.694 35.826 0 0 0
3626 6 4 -0.0772388 26.264 109.769 36.891 0 0 0
3627 6 1 0.132456 25.764 107.713 36.31 0 0 0
3628 6 7 0.150509 26.684 109.234 37.717 0 0 0
3629 6 12 -0.39396 25.048 110.281 37.403 0 0 0
3634 6 1 0.130284 28.232 110.568 36.352 0 0 0
3630 6 9 0.157527 25.178 111.252 37.448 0 0 0
3631 6 10 0.13315 26.976 111.461 35.787 0 0 0
3632 6 3 -0.0518339 27.271 110.926 36.685 0 0 0
3633 6 4 -0.0802366 27.466 111.859 37.912 0 0 0
3636 6 12 -0.399407 26.252 112.548 38.122 0 0 0
3637 6 9 0.150192 26.48 113.353 38.522 0 0 0
3635 6 7 0.153143 27.631 111.248 38.861 0 0 0
3638 6 10 0.137072 28.343 113.646 37.094 0 0 0
3639 6 3 -0.0507579 28.658 112.821 37.735 0 0 0
3640 6 4 -0.0854431 29.117 113.456 39.083 0 0 0
3641 6 1 0.130507 29.447 112.31 37.184 0 0 0
3642 6 7 0.147552 29.001 112.704 39.888 0 0 0
3643 6 12 -0.408809 28.194 114.543 39.346 0 0 0
3644 6 9 0.140194 28.676 115.314 39.664 0 0 0
3645 6 10 0.132142 30.614 114.853 38.388 0 0 0
3646 6 3 -0.046073 30.632 113.895 38.889 0 0 0
3647 6 4 -0.080928 31.345 114.102 40.262 0 0 0
3648 6 1 0.129932 31.277 113.302 38.234 0 0 0
3649 6 7 0.153514 30.758 114.832 40.795 0 0 0
3650 6 12 -0.394939 32.663 114.623 39.986 0 0 0
3651 6 9 0.153613 33.092 114.423 40.829 0 0 0
3652 6 10 0.130222 32.171 112.043 40.559 0 0 0
3653 6 3 -0.0508875 31.54 112.781 41.095 0 0 0
427 1 12 -0.408805 140.028 96.888 46.818 0 0 0
428 1 9 0.145238 140.595 96.698 46.066 0 0 0
433 1 7 0.150459 140.857 98.644 44.804 0 0 0
434 1 12 -0.412359 142.855 98.196 45.453 0 0 0
435 1 9 0.138891 142.937 97.872 44.552 0 0 0
430 1 3 -0.0625198 141.155 99.043 46.934 0 0 0
432 1 1 0.126426 140.177 99.62 47.007 0 0 0
439 1 1 0.131242 141.006 100.886 44.775 0 0 0
431 1 4 -0.0933341 141.674 99.021 45.476 0 0 0
436 1 10 0.12739 142.339 101.03 45.936 0 0 0
437 1 3 -0.0591214 142.013 100.476 45.021 0 0 0
438 1 4 -0.0816381 142.996 100.488 43.875 0 0 0
440 1 7 0.154185 142.691 99.703 43.189 0 0 0
441 1 12 -0.399417 144.3 100.137 44.35 0 0 0
442 1 9 0.141731 144.219 99.836 45.275 0 0 0
443 1 10 0.135441 143.369 102.626 43.865 0 0 0
444 1 3 -0.0576985 143.103 101.835 43.172 0 0 0
445 1 4 -0.0745345 143.931 101.964 41.884 0 0 0
446 1 1 0.132307 142.046 102.17 42.893 0 0 0
447 1 7 0.159911 144.97 101.459 41.998 0 0 0
448 1 12 -0.396416 144.067 103.375 41.589 0 0 0
3667 6 3 -0.0519167 33.163 110.653 45.317 0 0 0
3669 6 1 0.132111 32.163 110.209 45.547 0 0 0
3666 6 10 0.132237 33.77 109.892 44.753 0 0 0
3673 6 10 0.13151 34.472 108.813 47 0 0 0
6028 2 11 -0.834 103.982 106.19 44.729 0 0 0
6029 2 6 0.417 104.422 105.587 44.13 0 0 0
6030 2 6 0.417 104.049 105.768 45.586 0 0 0
3654 6 4 -0.0750456 32.134 113.054 42.442 0 0 0
3655 6 1 0.131428 30.518 112.338 41.213 0 0 0
3656 6 7 0.159056 31.567 113.912 42.87 0 0 0
3657 6 12 -0.391386 33.47 113.528 42.228 0 0 0
3659 6 10 0.130928 32.704 111.011 42.684 0 0 0
3660 6 3 -0.0479984 32.216 111.736 43.324 0 0 0
3661 6 4 -0.0776528 33.008 111.97 44.618 0 0 0
3662 6 1 0.133031 31.178 111.396 43.565 0 0 0
3663 6 7 0.156202 32.535 112.708 45.235 0 0 0
3658 6 9 0.157769 33.958 113.149 42.999 0 0 0
3664 6 12 -0.390472 34.343 112.356 44.315 0 0 0
3665 6 9 0.156634 34.802 112.227 45.171 0 0 0
3668 6 4 -0.0763334 33.761 110.884 46.743 0 0 0
3671 6 12 -0.39913 35.028 111.438 46.717 0 0 0
1502 3 12 -0.395947 98.399 32.731 52.211 0 0 0
1517 3 9 0.151197 93.32 35.556 51.46 0 0 0
1523 3 12 -0.393952 92.624 37.445 52.025 0 0 0
1524 3 9 0.157525 91.829 37.717 51.52 0 0 0
1525 3 10 0.133156 92.936 38.43 49.447 0 0 0
1499 3 4 -0.0804215 99.222 33.657 51.537 0 0 0
1503 3 9 0.155359 97.603 33.223 52.079 0 0 0
1504 3 10 0.13698 98.25 33.549 49.575 0 0 0
1505 3 3 -0.0443014 98.326 34.292 50.458 0 0 0
1506 3 4 -0.0809607 96.847 34.701 50.856 0 0 0
1507 3 1 0.138033 98.751 35.277 50.009 0 0 0
1508 3 7 0.152544 96.722 35.295 51.798 0 0 0
1509 3 12 -0.396413 96.1 33.505 50.96 0 0 0
1510 3 9 0.153034 95.146 33.801 50.749 0 0 0
1511 3 10 0.132663 95.913 34.838 48.869 0 0 0
1512 3 3 -0.0502697 96.12 35.438 49.778 0 0 0
1513 3 4 -0.0836508 94.77 36.083 50.226 0 0 0
1514 3 1 0.128191 96.779 36.234 49.429 0 0 0
1515 3 7 0.155826 94.155 36.485 49.385 0 0 0
1516 3 12 -0.399086 93.986 35.138 50.899 0 0 0
1518 3 10 0.12656 95.695 37.941 50.748 0 0 0
1519 3 3 -0.0583286 94.945 37.291 51.215 0 0 0
1520 3 4 -0.0772334 93.699 38.144 51.427 0 0 0
1521 3 1 0.132461 95.482 37.13 52.206 0 0 0
1522 3 7 0.150515 93.999 38.843 52.18 0 0 0
1487 3 7 0.149516 103.558 36.667 53.144 0 0 0
1488 3 12 -0.400578 102.198 38.041 52.256 0 0 0
1489 3 9 0.147285 101.723 37.41 51.659 0 0 0
1492 3 4 -0.0848721 100.914 35.448 52.336 0 0 0
1494 3 7 0.150915 101.761 34.795 51.987 0 0 0
1495 3 12 -0.412589 100.494 36.406 51.355 0 0 0
1496 3 9 0.135457 99.806 36.934 51.793 0 0 0
1498 3 3 -0.0596771 99.683 34.554 52.668 0 0 0
1501 3 7 0.155775 100.106 33.134 51.135 0 0 0
1526 3 3 -0.0518254 93.163 39.061 50.301 0 0 0
1527 3 4 -0.0802366 91.981 39.983 50.708 0 0 0
1529 3 7 0.153143 92.205 40.518 51.69 0 0 0
1530 3 12 -0.399401 90.869 39.158 50.981 0 0 0
1531 3 9 0.150192 90.117 39.669 50.799 0 0 0
1532 3 10 0.137081 91.089 40.568 48.838 0 0 0
1533 3 3 -0.0507543 91.667 41.043 49.633 0 0 0
1534 3 4 -0.085445 90.79 42.209 50.183 0 0 0
1535 3 1 0.130509 92.598 41.36 49.165 0 0 0
1536 3 7 0.147549 91.085 42.411 51.232 0 0 0
1537 3 12 -0.408805 89.427 41.715 50.187 0 0 0
1538 3 9 0.140195 88.829 42.396 49.861 0 0 0
1539 3 10 0.132146 90.413 43.328 48.371 0 0 0
1540 3 3 -0.0460796 91.046 43.461 49.238 0 0 0
1541 3 4 -0.0809569 90.618 44.793 49.928 0 0 0
1542 3 1 0.129929 92.034 43.59 48.786 0 0 0
1543 3 7 0.153503 89.581 44.67 50.194 0 0 0
1549 3 1 0.131402 91.457 44.321 51.871 0 0 0
1528 3 1 0.130291 93.946 39.657 49.861 0 0 0
1544 3 12 -0.394954 90.763 45.847 48.951 0 0 0
1545 3 9 0.153604 90.775 46.611 49.544 0 0 0
1546 3 10 0.130192 92.561 45.35 50.887 0 0 0
1547 3 3 -0.0509334 91.501 45.192 51.168 0 0 0
1548 3 4 -0.0750577 90.982 46.42 51.849 0 0 0
1550 3 7 0.159052 89.882 46.279 51.963 0 0 0
1551 3 12 -0.39143 91.15 47.514 50.938 0 0 0
1552 3 9 0.157756 91.363 48.266 51.543 0 0 0
1553 3 10 0.130916 92.838 46.734 52.854 0 0 0
1558 3 12 -0.390508 91.685 49.148 52.819 0 0 0
401 1 10 0.139118 145.966 90.506 52.018 0 0 0
402 1 3 -0.0432241 145.439 91.448 52.107 0 0 0
403 1 4 -0.068267 144.246 91.687 51.206 0 0 0
404 1 1 0.136568 146.306 92.083 51.761 0 0 0
405 1 7 0.1555 143.24 91.581 51.707 0 0 0
406 1 12 -0.397814 144.333 90.817 50.102 0 0 0
407 1 9 0.15651 143.679 91.11 49.455 0 0 0
413 1 12 -0.393864 142.455 92.625 48.856 0 0 0
419 1 7 0.160507 141.136 95.012 48.058 0 0 0
420 1 12 -0.402357 140.826 95.782 50.021 0 0 0
421 1 9 0.139929 140.299 96.552 49.853 0 0 0
424 1 4 -0.0854806 140.758 97.693 47.693 0 0 0
426 1 7 0.152535 140.202 98.026 48.617 0 0 0
408 1 10 0.131684 144.883 93.189 49.576 0 0 0
409 1 3 -0.0474472 144.203 93.09 50.478 0 0 0
410 1 4 -0.0739865 142.839 93.485 49.92 0 0 0
411 1 1 0.13146 144.549 93.85 51.183 0 0 0
412 1 7 0.156572 142.146 93.378 50.727 0 0 0
414 1 9 0.145742 141.628 93.064 48.607 0 0 0
415 1 10 0.133784 143.707 94.941 48.385 0 0 0
416 1 3 -0.044303 142.971 94.957 49.348 0 0 0
417 1 4 -0.0785998 141.669 95.596 48.852 0 0 0
418 1 1 0.137034 143.389 95.565 50.192 0 0 0
422 1 10 0.134873 142.617 96.762 47.36 0 0 0
423 1 3 -0.0524869 141.992 96.962 48.212 0 0 0
425 1 1 0.13135 142.622 97.562 48.919 0 0 0
6036 4 6 0.417 21.411 101.528 52.307 0 0 0
6034 4 11 -0.834 22.037 101.152 52.927 0 0 0
6035 4 6 0.417 22.494 100.476 52.425 0 0 0
429 1 10 0.130182 141.854 99.651 47.603 0 0 0
3676 6 1 0.131028 32.923 109.17 47.686 0 0 0
3683 6 1 0.139216 33.337 108.275 49.884 0 0 0
3689 6 4 -0.0784356 32.712 107.979 52.804 0 0 0
3691 6 7 0.154343 32.374 107.149 52.141 0 0 0
3692 6 12 -0.401211 31.816 109.096 52.479 0 0 0
3693 6 9 0.151712 31.149 108.852 53.121 0 0 0
3674 6 3 -0.0461304 33.863 109.638 47.537 0 0 0
3675 6 4 -0.0741903 34.449 109.879 48.951 0 0 0
3677 6 7 0.157566 33.895 110.743 49.452 0 0 0
3678 6 12 -0.395677 35.858 110.175 48.879 0 0 0
3679 6 9 0.153067 36.031 110.391 49.791 0 0 0
3680 6 10 0.132402 34.967 107.92 49.617 0 0 0
3681 6 3 -0.0497116 34.304 108.747 49.921 0 0 0
3682 6 4 -0.0817893 34.624 109.157 51.369 0 0 0
3684 6 7 0.154447 34.233 110.18 51.539 0 0 0
3685 6 12 -0.398004 36.066 109.172 51.451 0 0 0
3686 6 9 0.140221 36.354 108.252 51.528 0 0 0
3688 6 3 -0.051937 34.165 108.324 52.565 0 0 0
3690 6 1 0.128548 34.749 107.357 52.478 0 0 0
3670 6 7 0.153877 33.099 111.741 47.191 0 0 0
3672 6 9 0.156591 35.45 111.02 47.479 0 0 0
1451 3 1 0.133206 109.847 29.13 58.969 0 0 0
1458 3 1 0.129225 108.832 31.196 58.255 0 0 0
1497 3 10 0.128367 98.824 35.04 53.161 0 0 0
1469 3 10 0.130643 105.339 34.53 56.959 0 0 0
1471 3 4 -0.0784528 105.212 36.555 57.088 0 0 0
1473 3 7 0.159413 104.404 36.389 57.9 0 0 0
1476 3 10 0.129254 104.278 35.851 55.142 0 0 0
1477 3 3 -0.050458 104.621 36.812 55.69 0 0 0
1478 3 4 -0.0755118 103.366 37.711 55.768 0 0 0
1479 3 1 0.132545 105.346 37.198 54.935 0 0 0
1480 3 7 0.158937 103.63 38.638 56.351 0 0 0
1481 3 12 -0.410564 102.323 36.947 56.355 0 0 0
1482 3 9 0.13284 101.814 36.68 55.601 0 0 0
1483 3 10 0.133584 103.622 38.821 54.058 0 0 0
1484 3 3 -0.0535164 102.794 38.192 54.447 0 0 0
1485 3 4 -0.089728 102.579 37.201 53.31 0 0 0
1490 3 10 0.127705 100.605 36.813 54.061 0 0 0
1491 3 3 -0.0549312 101.39 36.247 53.551 0 0 0
1493 3 1 0.132882 101.624 35.469 54.245 0 0 0
1500 3 1 0.13345 100.043 33.938 53.519 0 0 0
1460 3 12 -0.405771 109.952 33.662 58.982 0 0 0
1461 3 9 0.145601 109.776 34.646 59.039 0 0 0
1462 3 10 0.130022 106.877 32.937 58.038 0 0 0
1463 3 3 -0.0475759 107.702 33.61 58.116 0 0 0
1464 3 4 -0.0809433 107.093 35.011 58.273 0 0 0
1465 3 1 0.134561 108.35 33.573 57.245 0 0 0
1466 3 7 0.159368 107.896 35.798 58.181 0 0 0
1470 3 3 -0.0474366 106.112 35.285 57.028 0 0 0
1472 3 1 0.133488 106.677 35.317 56.121 0 0 0
1474 3 12 -0.403128 106.007 37.672 57.516 0 0 0
1475 3 9 0.148177 106.516 37.158 58.169 0 0 0
1486 3 1 0.133084 101.937 38.863 54.555 0 0 0
1554 3 3 -0.0480178 91.802 46.749 53.169 0 0 0
1555 3 4 -0.0776617 91.409 48.112 53.754 0 0 0
1556 3 1 0.133025 91.618 45.941 53.92 0 0 0
1557 3 7 0.156184 90.375 48.13 54.039 0 0 0
1559 3 9 0.156603 91.642 49.955 53.374 0 0 0
1560 3 10 0.132232 93.406 48.531 54.622 0 0 0
1561 3 3 -0.0518805 92.323 48.41 54.903 0 0 0
1562 3 4 -0.0762164 91.812 49.676 55.666 0 0 0
1563 3 1 0.13216 92.247 47.615 55.684 0 0 0
1564 3 7 0.153945 90.671 49.464 55.83 0 0 0
1565 3 12 -0.399091 91.816 50.819 54.887 0 0 0
1568 3 3 -0.0459435 92.612 49.987 56.873 0 0 0
1570 3 1 0.131166 92.608 49.197 57.581 0 0 0
1567 3 10 0.131594 93.739 50.114 56.644 0 0 0
1566 3 9 0.156604 92.042 51.504 55.529 0 0 0
1569 3 4 -0.0739414 92.091 51.238 57.626 0 0 0
1571 3 7 0.15772 90.965 51.146 57.787 0 0 0
1572 3 12 -0.395548 92.385 52.44 56.888 0 0 0
1573 3 9 0.153129 91.922 53.082 57.42 0 0 0
1575 3 3 -0.0493316 92.638 51.445 59.005 0 0 0
1574 3 10 0.132606 93.699 51.735 58.936 0 0 0
4911 7 7 0.157801 52.354 64.489 58.459 0 0 0
364 1 12 -0.388183 135.39 92.741 58.194 0 0 0
365 1 9 0.154328 136.391 92.73 58.384 0 0 0