LAMMPS data file via write_data, version 15 Sep 2022, timestep = 0

6664 atoms
17 atom types
6620 bonds
16 bond types
12056 angles
26 angle types
18888 dihedrals
28 dihedral types

-0.134997 179.865003 xlo xhi
1.224001 181.224001 ylo yhi
-0.414498 179.585502 zlo zhi

Masses

1 1.00794
2 1.00794
3 12.0107
4 12.0107
5 1.00794
6 1.00794
7 1.00794
8 1.00794
9 1.00794
10 15.999
11 15.9994
12 15.9994
13 28.085501
14 12.0107
15 12.0107
16 1.00794
17 15.9994

Pair Coeffs # lj/cut

1 0.038 2.44997
2 0.038 2.44997
3 0.039 3.87541
4 0.039 3.87541
5 0.038 2.44997
6 0.038 2.44997
7 0.038 2.44997
8 0 0
9 0.038 2.44997
10 0.228 2.85978
11 0.228 2.85978
12 0.228 2.85978
13 0.04 4.05343
14 0.148 3.61705
15 0.039 3.87541
16 0.038 2.44997
17 0.228 2.85978

Bond Coeffs # harmonic

1 340.618 1.105
2 340.618 1.105
3 322.716 1.526
4 340.618 1.105
5 340.618 1.105
6 340.618 1.105
7 384 1.42
8 540.634 0.96
9 540.634 0.96
10 833.72 1.208
11 392.8 1.665
12 283.092 1.52
13 340.618 1.105
14 615.322 1.23
15 322.716 1.526
16 340.618 1.105

Angle Coeffs # harmonic

1 39.5 106.4
2 44.4 110
3 39.5 106.4
4 44.4 110
5 39.5 106.4
6 46.6 110.5
7 44.4 110
8 44.4 110
9 70 109.5
10 46.6 110.5
11 44.4 110
12 58.5 106
13 33.3 113.4
14 39.5 106.4
15 57 109.5
16 57 109.5
17 42.3 113.1
18 31.1 149.8
19 46.6 110.5
20 45 109.5
21 50 120
22 68 120
23 46.6 110.5
24 44.4 110
25 55 120
26 39.5 106.4

Dihedral Coeffs # harmonic

1 0.1580 1 3
2 0.1580 1 3
3 0.1580 1 3
4 0.1580 1 3
5 0.1580 1 3
6 0.1580 1 3
7 0.1580 1 3
8 0.1300 1 3
9 0.1580 1 3
10 0.1580 1 3
11 0.1580 1 3
12 0.1580 1 3
13 1 1 3
14 0.1300 1 3
15 0.1300 1 3
16 0.1580 1 3
17 0.1580 1 3
18 0.1580 1 3
19 0.1580 1 3
20 0.3 1 3
21 0.1580 1 3
22 0.1580 1 3
23 0.1580 1 3
24 0 1 0
25 0 1 0
26 0.1580 1 3
27 0 1 0
28 0 1 0

Atoms # full

6127 35 14 -0.0339655 156.851 133.181 3.286 0 0 0
6139 35 16 0.16784 156.792 132.095 3.195 0 0 0
6138 35 17 -0.394467 155.82 133.822 3.352 0 0 0
6128 35 15 -0.031129 158.205 133.837 3.338 0 0 0
6129 35 15 -0.0442073 158.12 135.365 3.483 0 0 0
6130 35 16 0.159772 158.759 133.596 2.392 0 0 0
6131 35 16 0.151235 158.763 133.421 4.207 0 0 0
6132 35 15 -0.034685 159.52 135.993 3.533 0 0 0
6133 35 16 0.177058 157.581 135.608 4.416 0 0 0
6134 35 16 0.177896 157.556 135.785 2.624 0 0 0
6135 35 14 -0.0436442 159.446 137.486 3.663 0 0 0
6136 35 16 0.169261 160.072 135.744 2.595 0 0 0
6137 35 16 0.155435 160.076 135.585 4.408 0 0 0
6140 35 17 -0.405532 160.47 138.143 3.718 0 0 0
6141 35 16 0.146976 158.492 137.985 3.717 0 0 0
5934 22 15 -0.0423901 171.499 144.905 3.117 0 0 0
5937 22 15 -0.0331628 170.177 145.128 2.368 0 0 0
5938 22 16 0.178818 171.35 144.133 3.891 0 0 0
5939 22 16 0.178829 172.272 144.554 2.403 0 0 0
5940 22 14 -0.0388044 169.708 143.87 1.699 0 0 0
5943 22 17 -0.410807 173.854 144.958 4.58 0 0 0
5945 22 17 -0.399935 168.67 143.872 1.061 0 0 0
5946 22 16 0.153875 170.277 142.959 1.784 0 0 0
5932 22 14 -0.0473534 173.273 146.026 4.537 0 0 0
5933 22 15 -0.0358767 171.978 146.201 3.79 0 0 0
5935 22 16 0.157124 172.121 146.986 3 0 0 0
5936 22 16 0.157104 171.201 146.543 4.511 0 0 0
5941 22 16 0.158577 170.319 145.916 1.59 0 0 0
5942 22 16 0.162176 169.396 145.461 3.091 0 0 0
5944 22 16 0.151592 173.702 146.88 5.063 0 0 0
5692 6 14 -0.0468792 119.343 36.538 10.453 0 0 0
5703 6 17 -0.410424 118.315 35.941 10.198 0 0 0
5704 6 16 0.15186 120.277 35.977 10.514 0 0 0
5693 6 15 -0.0356356 119.366 38.024 10.697 0 0 0
5694 6 15 -0.0423901 117.973 38.665 10.591 0 0 0
5697 6 15 -0.0331838 118.041 40.177 10.847 0 0 0
5698 6 16 0.179034 117.306 38.201 11.339 0 0 0
5699 6 16 0.179051 117.559 38.48 9.578 0 0 0
5700 6 14 -0.0441644 116.687 40.813 10.735 0 0 0
5701 6 16 0.158521 118.721 40.65 10.098 0 0 0
5705 6 17 -0.403671 116.562 42.012 10.911 0 0 0
5706 6 16 0.150112 115.819 40.217 10.507 0 0 0
5695 6 16 0.157529 120.041 38.503 9.939 0 0 0
2943 5 9 0.133941 119.681 91.904 11.145 0 0 0
2928 5 8 0.159817 124.363 96.342 9.806 0 0 0
2929 5 9 0.130037 122.069 96.48 8.939 0 0 0
2930 5 3 -0.0498795 122.137 96.614 10.014 0 0 0
2931 5 4 -0.0792151 122.42 95.29 10.775 0 0 0
2932 5 1 0.128649 121.123 96.926 10.204 0 0 0
2934 5 11 -0.397891 123.621 94.751 10.265 0 0 0
2935 5 8 0.15164 123.562 93.833 10.38 0 0 0
2936 5 9 0.135503 121.295 93.802 9.701 0 0 0
2937 5 3 -0.0454629 121.249 94.292 10.675 0 0 0
2939 5 1 0.128049 120.311 94.847 10.676 0 0 0
2941 5 11 -0.408751 122.285 92.197 11.233 0 0 0
2942 5 8 0.140504 121.958 91.303 11.379 0 0 0
2909 5 3 -0.0462776 122.586 103.195 7.582 0 0 0
2910 5 4 -0.080995 123.312 101.834 7.95 0 0 0
2911 5 1 0.135326 121.507 103.025 7.983 0 0 0
2912 5 6 0.150245 123.626 101.701 9.017 0 0 0
2913 5 11 -0.393891 124.447 101.731 7.115 0 0 0
2914 5 8 0.15518 124.594 100.724 7.036 0 0 0
2915 5 9 0.133628 122.396 100.474 6.482 0 0 0
2916 5 3 -0.0521868 122.528 100.618 7.574 0 0 0
2917 5 4 -0.083779 123.084 99.28 8.155 0 0 0
2918 5 1 0.124381 121.513 100.758 7.949 0 0 0
2919 5 6 0.155693 122.598 98.365 7.738 0 0 0
2920 5 11 -0.396462 124.456 99.176 7.896 0 0 0
2921 5 8 0.153564 124.89 98.556 8.496 0 0 0
2922 5 9 0.124172 121.872 99.404 9.915 0 0 0
2923 5 3 -0.0600517 122.921 99.151 9.712 0 0 0
2924 5 4 -0.0793775 123.15 97.754 10.277 0 0 0
2925 5 1 0.131345 123.397 99.932 10.391 0 0 0
2926 5 6 0.150885 123.076 97.897 11.336 0 0 0
2927 5 11 -0.39403 124.468 97.273 10.093 0 0 0
2893 5 8 0.143843 119.877 105.083 11.017 0 0 0
2895 5 3 -0.0579244 121.948 105.765 11.553 0 0 0
2896 5 4 -0.0884898 121.867 105.4 10.069 0 0 0
2897 5 1 0.130131 122.745 106.477 11.558 0 0 0
2898 5 6 0.147492 121.623 106.331 9.487 0 0 0
2899 5 11 -0.414296 120.868 104.378 9.953 0 0 0
2900 5 8 0.134407 121.168 103.661 10.536 0 0 0
2901 5 9 0.126056 123.647 103.97 10.11 0 0 0
2902 5 3 -0.0634603 123.204 104.803 9.539 0 0 0
2903 5 4 -0.081144 123.228 104.513 8.052 0 0 0
2904 5 1 0.132975 123.945 105.592 9.784 0 0 0
2905 5 6 0.155542 122.854 105.407 7.524 0 0 0
2906 5 11 -0.393378 124.609 104.368 7.802 0 0 0
2907 5 8 0.157619 124.614 103.432 7.933 0 0 0
2908 5 9 0.137962 122.494 103.233 6.43 0 0 0
2838 5 9 0.13055 129.866 120.308 10.822 0 0 0
2839 5 3 -0.0532293 129.577 121.073 11.555 0 0 0
2845 5 9 0.130521 128.08 118.764 11.259 0 0 0
2848 5 1 0.131757 126.995 120.148 11.246 0 0 0
2835 5 6 0.156759 131.391 122.162 11.196 0 0 0
2841 5 1 0.133479 128.881 121.776 11.01 0 0 0
5929 21 16 0.151862 79.097 132.297 10.217 0 0 0
5928 21 17 -0.410425 77.709 133.708 10.03 0 0 0
5917 21 14 -0.0468779 78.873 133.356 10.079 0 0 0
5918 21 15 -0.0356346 80.01 134.337 9.967 0 0 0
5919 21 15 -0.0423901 79.53 135.787 9.793 0 0 0
5920 21 16 0.157532 80.641 134.057 9.082 0 0 0
5921 21 16 0.157541 80.624 134.268 10.894 0 0 0
5922 21 15 -0.0331849 80.719 136.752 9.684 0 0 0
5923 21 16 0.179038 78.914 136.068 10.665 0 0 0
5924 21 16 0.179051 78.909 135.86 8.876 0 0 0
5925 21 14 -0.044163 80.259 138.168 9.502 0 0 0
5926 21 16 0.158523 81.35 136.466 8.808 0 0 0
5927 21 16 0.15857 81.33 136.691 10.614 0 0 0
5930 21 17 -0.403671 81.078 139.064 9.4 0 0 0
5931 21 16 0.150114 79.208 138.403 9.469 0 0 0
5696 6 16 0.157538 119.771 38.205 11.718 0 0 0
5702 6 16 0.158568 118.438 40.36 11.872 0 0 0
6646 11 10 0 89.716 65.12 14.096 0 0 0
6645 11 10 0 90.988 65.16 14.252 0 0 0
5633 2 15 -0.035635 76.873 84.557 13.479 0 0 0
5634 2 15 -0.0423901 76.63 84.8 14.977 0 0 0
5635 2 16 0.157532 76.176 83.75 13.127 0 0 0
5639 2 16 0.179051 76.849 83.871 15.541 0 0 0
5641 2 16 0.158523 74.486 84.427 14.878 0 0 0
5632 2 14 -0.0468777 78.288 84.137 13.179 0 0 0
5643 2 17 -0.410428 79.123 84.012 14.054 0 0 0
5644 2 16 0.15186 78.576 83.947 12.144 0 0 0
5636 2 16 0.15754 76.66 85.496 12.919 0 0 0
5637 2 15 -0.0331825 75.178 85.226 15.237 0 0 0
5638 2 16 0.179041 77.309 85.598 15.325 0 0 0
5640 2 14 -0.0441615 74.929 85.456 16.699 0 0 0
5642 2 16 0.158572 74.966 86.172 14.686 0 0 0
5645 2 17 -0.40367 73.825 85.802 17.08 0 0 0
5646 2 16 0.150113 75.722 85.325 17.417 0 0 0
2949 5 8 0.148588 118.315 91.083 14.266 0 0 0
2947 5 6 0.151839 120.461 91.051 13.261 0 0 0
2954 5 6 0.157698 120.503 91.051 15.671 0 0 0
2944 5 3 -0.0471239 119.857 92.609 11.946 0 0 0
2945 5 4 -0.0834666 119.718 91.83 13.291 0 0 0
2946 5 1 0.125274 119.014 93.297 11.839 0 0 0
2948 5 11 -0.399074 118.392 91.258 13.319 0 0 0
2950 5 9 0.131199 119.071 93.51 14.621 0 0 0
2951 5 3 -0.0578304 119.857 92.728 14.575 0 0 0
2952 5 4 -0.071804 119.817 91.914 15.831 0 0 0
2955 5 11 -0.38842 118.499 91.361 15.937 0 0 0
2956 5 8 0.157244 118.34 91.368 16.912 0 0 0
2957 5 9 0.128168 119.387 93.635 17.018 0 0 0
2933 5 6 0.153042 122.629 95.494 11.877 0 0 0
2938 5 4 -0.0836974 121.333 93.163 11.746 0 0 0
2940 5 6 0.148576 121.748 93.59 12.681 0 0 0
2953 5 1 0.128444 120.848 93.241 14.487 0 0 0
2958 5 3 -0.0500554 120.079 92.808 17.117 0 0 0
2960 5 1 0.134271 121.131 93.185 17.089 0 0 0
4213 7 9 0.141159 113.379 102.411 13.737 0 0 0
4214 7 3 -0.0521649 112.883 102.787 14.651 0 0 0
4215 7 4 -0.058826 112.492 101.699 15.59 0 0 0
4218 7 6 0.162969 111.657 101.09 15.177 0 0 0
4219 7 11 -0.395257 112.074 102.435 16.739 0 0 0
4220 7 8 0.143785 112.797 103.034 16.922 0 0 0
4222 7 3 -0.0415666 113.648 100.774 16.05 0 0 0
4223 7 4 -0.0801071 113.081 99.704 17.051 0 0 0
4226 7 11 -0.408219 112.337 98.748 16.275 0 0 0
4227 7 8 0.137533 112.915 98.032 16.17 0 0 0
4221 7 9 0.135109 114.339 101.525 16.545 0 0 0
4224 7 1 0.126008 114.198 100.336 15.253 0 0 0
4228 7 9 0.131618 114.971 98.619 17.156 0 0 0
4216 7 1 0.155002 112.062 103.38 14.268 0 0 0
4217 7 2 0.136473 113.715 103.434 15.005 0 0 0
2887 5 9 0.132746 119.674 106.709 13.962 0 0 0
2892 5 11 -0.400738 119.659 105.369 11.941 0 0 0
2880 5 9 0.127749 121.822 108.833 12.819 0 0 0
2881 5 3 -0.0492328 121.44 108.849 13.912 0 0 0
2882 5 4 -0.0748095 121.56 107.391 14.411 0 0 0
2883 5 1 0.131942 120.375 109.124 13.725 0 0 0
2884 5 6 0.157657 121.259 107.362 15.496 0 0 0
2885 5 11 -0.416343 122.894 106.964 14.178 0 0 0
2886 5 8 0.132089 122.811 106.451 13.384 0 0 0
2888 5 3 -0.0531033 120.697 106.36 13.706 0 0 0
2889 5 4 -0.0929224 120.655 106.323 12.183 0 0 0
2890 5 1 0.130789 120.781 105.354 14.125 0 0 0
2891 5 6 0.148108 120.394 107.362 11.832 0 0 0
2894 5 9 0.125566 122.319 104.966 12.2 0 0 0
2859 5 9 0.131716 125.825 114.895 13.293 0 0 0
2861 5 4 -0.0785502 123.994 114.796 14.489 0 0 0
2863 5 6 0.156792 124.564 114.524 15.454 0 0 0
2865 5 8 0.146782 122.408 115.082 15.553 0 0 0
2866 5 9 0.1316 124.17 113.064 13.284 0 0 0
2867 5 3 -0.0449298 123.424 113.506 13.906 0 0 0
2868 5 4 -0.0783098 122.987 112.41 14.888 0 0 0
2869 5 1 0.136137 122.572 113.869 13.339 0 0 0
2870 5 6 0.161104 122.074 112.742 15.462 0 0 0
2871 5 11 -0.396781 124.116 112.085 15.733 0 0 0
2872 5 8 0.143939 124.868 112.432 15.241 0 0 0
2873 5 9 0.132516 123.268 110.774 13.379 0 0 0
2874 5 3 -0.0463588 122.492 111.133 14.043 0 0 0
2875 5 4 -0.0791139 122.211 109.818 14.828 0 0 0
2876 5 1 0.134094 121.617 111.386 13.485 0 0 0
2877 5 6 0.158951 123.222 109.39 15.195 0 0 0
2878 5 11 -0.40565 121.441 110.128 16 0 0 0
2879 5 8 0.148289 121.923 110.953 16.192 0 0 0
2850 5 11 -0.400402 125.576 119.842 13.252 0 0 0
2851 5 8 0.147599 125.799 120.354 14.022 0 0 0
2854 5 4 -0.0713941 125.464 116.903 13.814 0 0 0
2855 5 1 0.13401 125.602 117.519 11.772 0 0 0
2856 5 6 0.163355 124.622 117.604 14.124 0 0 0
2860 5 3 -0.053935 124.924 115.544 13.485 0 0 0
2862 5 1 0.130474 124.403 115.567 12.52 0 0 0
2864 5 11 -0.40403 122.87 115.647 14.867 0 0 0
2836 5 11 -0.395665 131.467 120.948 12.944 0 0 0
2837 5 8 0.155728 130.716 120.428 13.312 0 0 0
2840 5 4 -0.0867684 128.73 120.363 12.63 0 0 0
2842 5 6 0.150437 128.127 121.19 13.217 0 0 0
2843 5 11 -0.40908 129.506 119.507 13.476 0 0 0
2844 5 8 0.139871 129.184 118.613 13.39 0 0 0
2846 5 3 -0.049433 127.646 119.545 11.918 0 0 0
2847 5 4 -0.0764008 126.662 118.919 13.025 0 0 0
2849 5 6 0.162165 127.168 118.798 14.034 0 0 0
2852 5 9 0.136162 127.261 116.92 12.4 0 0 0
2853 5 3 -0.0466304 126.293 117.489 12.634 0 0 0
2857 5 11 -0.395785 126.309 116.797 15.003 0 0 0
2858 5 8 0.142709 126.834 115.989 14.742 0 0 0
2819 5 4 -0.0744194 131.75 125.652 15.495 0 0 0
2821 5 6 0.1585 131.748 124.848 16.252 0 0 0
2822 5 11 -0.401707 130.947 126.734 15.998 0 0 0
2823 5 8 0.137935 130.506 127.064 15.253 0 0 0
2824 5 9 0.131073 131.282 125.873 13.376 0 0 0
2825 5 3 -0.0519793 131.136 125.176 14.205 0 0 0
2826 5 4 -0.0735381 131.469 123.748 13.81 0 0 0
2827 5 1 0.135083 129.994 125.237 14.382 0 0 0
2828 5 6 0.15938 131.324 123.119 14.762 0 0 0
2831 5 9 0.13367 130.272 123.985 12.018 0 0 0
2832 5 3 -0.0533342 130.432 123.22 12.817 0 0 0
2833 5 4 -0.0842565 130.748 121.868 12.082 0 0 0
2834 5 1 0.13042 129.385 123.172 13.257 0 0 0
2810 5 3 -0.0439831 135.275 126.835 16.715 0 0 0
2811 5 4 -0.0515814 133.868 126.345 16.72 0 0 0
2813 5 2 0.146268 135.97 126.253 16.073 0 0 0
2814 5 6 0.166494 133.225 126.969 17.38 0 0 0
2815 5 11 -0.388538 134.016 125.025 17.241 0 0 0
2816 5 8 0.141005 134.696 124.624 16.702 0 0 0
2817 5 9 0.138024 133.914 125.455 14.833 0 0 0
2818 5 3 -0.0347636 133.212 126.201 15.321 0 0 0
2820 5 1 0.134765 133.25 127.084 14.731 0 0 0
2829 5 11 -0.403863 132.838 123.516 13.379 0 0 0
2830 5 8 0.146533 132.724 122.711 12.896 0 0 0
2809 5 9 0.153029 135.391 127.807 16.201 0 0 0
6652 14 10 0 77.261 150.527 14.814 0 0 0
6651 14 10 0 76.451 151.324 14.221 0 0 0
5663 4 15 -0.0356359 71.38 52.307 19.698 0 0 0
5664 4 15 -0.0423901 69.866 52.428 19.93 0 0 0
5665 4 16 0.157528 71.594 51.31 19.229 0 0 0
5666 4 16 0.157539 71.707 53.117 19.006 0 0 0
5667 4 15 -0.0331828 69.094 52.305 18.609 0 0 0
5668 4 16 0.17904 69.65 53.41 20.386 0 0 0
5669 4 16 0.179052 69.536 51.63 20.627 0 0 0
5670 4 14 -0.0441625 67.614 52.412 18.828 0 0 0
5671 4 16 0.158521 69.316 51.317 18.14 0 0 0
5672 4 16 0.158571 69.412 53.121 17.919 0 0 0
5673 4 17 -0.410431 71.644 52.592 22.052 0 0 0
5675 4 17 -0.403669 66.852 52.336 17.88 0 0 0
5676 4 16 0.150112 67.216 52.562 19.818 0 0 0
5662 4 14 -0.0468801 72.176 52.423 20.971 0 0 0
5674 4 16 0.15186 73.265 52.363 20.923 0 0 0
2961 5 6 0.15875 120.507 91.188 18.493 0 0 0
2959 5 4 -0.0817665 119.836 92.021 18.413 0 0 0
2962 5 11 -0.393763 118.485 91.58 18.475 0 0 0
2963 5 8 0.156666 118.386 91.33 19.418 0 0 0
2964 5 9 0.128809 119.187 93.784 19.59 0 0 0
2969 5 11 -0.397545 118.765 91.48 21.12 0 0 0
2970 5 8 0.158469 118.665 91.537 22.079 0 0 0
2971 5 9 0.127245 119.393 93.885 22.169 0 0 0
2965 5 3 -0.0532664 119.962 92.968 19.567 0 0 0
2966 5 4 -0.0799938 119.949 92.164 20.908 0 0 0
2967 5 1 0.129578 120.974 93.439 19.582 0 0 0
2968 5 6 0.150362 120.729 91.308 20.732 0 0 0
2972 5 3 -0.0463708 120.158 93.02 22.099 0 0 0
2973 5 4 -0.0794695 120.152 92.212 23.422 0 0 0
2974 5 1 0.128239 121.086 93.534 22.075 0 0 0
2975 5 6 0.159411 120.852 91.316 23.326 0 0 0
4225 7 6 0.159501 112.379 100.191 17.75 0 0 0
4231 7 1 0.131054 113.658 97.966 18.12 0 0 0
4232 7 6 0.159199 113.739 99.999 19.624 0 0 0
4229 7 3 -0.0642713 114.156 98.961 17.8 0 0 0
4230 7 4 -0.0759418 114.672 99.645 19.053 0 0 0
4233 7 11 -0.402745 115.483 100.833 18.834 0 0 0
4234 7 8 0.1468 115.938 100.876 19.662 0 0 0
4235 7 9 0.125818 116.04 97.993 19.369 0 0 0
4236 7 3 -0.0644691 115.344 98.624 19.974 0 0 0
4237 7 4 -0.0861885 116.179 99.173 21.186 0 0 0
4238 7 1 0.127235 114.625 97.826 20.344 0 0 0
4239 7 6 0.146544 117.202 99.401 20.755 0 0 0
4240 7 11 -0.400519 115.586 100.376 21.74 0 0 0
4241 7 8 0.148862 115.034 99.987 22.457 0 0 0
4242 7 9 0.124781 117.181 98.576 23.04 0 0 0
4243 7 3 -0.052759 116.374 98.254 22.368 0 0 0
4244 7 4 -0.0933702 115.123 98.041 23.245 0 0 0
4245 7 1 0.133752 116.675 97.236 21.987 0 0 0
4246 7 6 0.153782 114.364 97.377 22.634 0 0 0
2812 5 1 0.154119 135.702 127.012 17.694 0 0 0
2977 5 8 0.151992 119.006 91.216 24.5 0 0 0
2982 5 6 0.155656 121.333 91.049 25.443 0 0 0
4254 7 11 -0.399767 113.643 95.571 24.766 0 0 0
4255 7 8 0.150439 112.953 95.807 24.154 0 0 0
4258 7 4 -0.0683746 113.161 96.649 27.518 0 0 0
4260 7 6 0.168623 112.602 95.737 27.126 0 0 0
4264 7 3 -0.0539589 113.363 96.547 28.999 0 0 0
4268 7 11 -0.405084 111.449 95.056 29.504 0 0 0
2976 5 11 -0.399404 118.821 91.763 23.742 0 0 0
2983 5 11 -0.404164 119.606 91.75 26.396 0 0 0
2984 5 8 0.133134 119.371 92.531 26.915 0 0 0
4250 7 3 -0.0471566 115.52 97.158 24.434 0 0 0
4251 7 4 -0.0747055 114.198 96.801 25.276 0 0 0
4252 7 1 0.130325 115.96 96.178 24.139 0 0 0
4257 7 3 -0.0494671 114.51 96.86 26.77 0 0 0
4259 7 1 0.133051 115.138 95.991 27.041 0 0 0
4266 7 1 0.128406 114.138 95.804 29.225 0 0 0
2978 5 9 0.126336 119.93 93.713 24.92 0 0 0
2979 5 3 -0.0543996 120.657 92.937 24.632 0 0 0
2980 5 4 -0.0863653 120.909 91.999 25.826 0 0 0
2981 5 1 0.140092 121.538 93.523 24.441 0 0 0
2985 5 9 0.12454 121.786 91.556 27.692 0 0 0
2986 5 3 -0.0592931 121.789 92.411 27.005 0 0 0
2987 5 4 -0.0880774 123.225 92.853 26.83 0 0 0
2988 5 1 0.12214 121.218 93.252 27.504 0 0 0
2989 5 6 0.149473 123.289 93.903 26.462 0 0 0
2990 5 11 -0.410127 123.929 92.064 25.811 0 0 0
2991 5 8 0.148213 124.789 92.157 26.219 0 0 0
2992 5 9 0.129904 123.95 91.668 28.524 0 0 0
2993 5 3 -0.0593225 123.921 92.775 28.33 0 0 0
2994 5 4 -0.0955559 125.243 93.47 28.341 0 0 0
2995 5 1 0.131432 123.143 93.203 28.928 0 0 0
2996 5 6 0.140498 125.09 94.595 28.311 0 0 0
2997 5 11 -0.4045 125.975 93.069 27.165 0 0 0
2998 5 8 0.145267 126.865 93.295 27.294 0 0 0
2999 5 9 0.141846 126.277 92.02 29.306 0 0 0
3000 5 3 -0.0450273 126.11 93.073 29.538 0 0 0
3004 5 11 -0.397237 128.189 93.606 28.408 0 0 0
3005 5 8 0.15427 128.75 94.419 28.41 0 0 0
3009 5 1 0.130615 126.769 95.885 28.906 0 0 0
3011 5 11 -0.396356 129.453 96.027 28.893 0 0 0
3012 5 8 0.145069 130.252 96.593 29.139 0 0 0
4253 7 6 0.163805 113.379 97.577 25.144 0 0 0
4261 7 11 -0.400219 112.267 97.773 27.243 0 0 0
4262 7 8 0.136657 112.69 98.452 27.839 0 0 0
4263 7 9 0.127258 113.823 97.526 29.314 0 0 0
4247 7 11 -0.416801 114.56 99.269 23.722 0 0 0
4248 7 8 0.13469 114.577 99.268 24.676 0 0 0
4249 7 9 0.128321 116.299 97.635 25.065 0 0 0
4256 7 9 0.136393 115.028 97.859 26.991 0 0 0
6636 6 10 0 83.603 107.293 28.426 0 0 0
6635 6 10 0 84.729 107.3 29.04 0 0 0
6097 33 14 -0.0485455 115.943 106.5 27.884 0 0 0
6098 33 15 -0.0313371 114.979 107.655 27.955 0 0 0
6099 33 15 -0.0404411 115.675 108.993 28.252 0 0 0
6100 33 16 0.158626 114.231 107.45 28.766 0 0 0
6101 33 16 0.161574 114.451 107.73 26.977 0 0 0
6103 33 16 0.178544 116.408 109.201 27.453 0 0 0
6104 33 16 0.183696 116.212 108.921 29.22 0 0 0
6108 33 17 -0.412775 117.138 106.645 28.052 0 0 0
6109 33 16 0.151611 115.559 105.502 27.667 0 0 0
6102 33 15 -0.0282903 114.659 110.141 28.314 0 0 0
6105 33 14 -0.0442221 115.328 111.45 28.614 0 0 0
6106 33 16 0.1596 113.909 109.931 29.115 0 0 0
6107 33 16 0.161978 114.136 110.225 27.333 0 0 0
6110 33 17 -0.403963 114.664 112.467 28.698 0 0 0
6111 33 16 0.14982 116.396 111.5 28.75 0 0 0
6657 17 10 0 117.106 126.157 25.854 0 0 0
6658 17 10 0 116.067 126.802 25.471 0 0 0
6633 5 10 0 2.006 29.929 32.703 0 0 0
6634 5 10 0 0.803 30.133 32.312 0 0 0
4265 7 4 -0.0816669 112.159 96.253 29.945 0 0 0
4267 7 6 0.159622 111.405 97.126 29.936 0 0 0
4269 7 8 0.147227 110.678 95.029 30.142 0 0 0
4270 7 9 0.131936 113.415 96.678 31.596 0 0 0
4271 7 3 -0.0527761 112.593 96.029 31.391 0 0 0
4272 7 4 -0.0807107 111.56 96.292 32.496 0 0 0
4273 7 1 0.130253 112.882 94.982 31.383 0 0 0
4274 7 6 0.161716 110.74 95.519 32.455 0 0 0
4277 7 9 0.129449 113.136 96.693 34.043 0 0 0
4278 7 3 -0.0456324 112.267 96.058 33.923 0 0 0
4279 7 4 -0.0764395 111.475 96.481 35.195 0 0 0
4280 7 1 0.13328 112.545 95.031 34.025 0 0 0
4282 7 11 -0.401716 110.123 96.01 35.083 0 0 0
4283 7 8 0.149198 110.052 96.208 34.131 0 0 0
3002 5 1 0.129269 125.455 93.268 30.429 0 0 0
3001 5 4 -0.0825818 127.45 93.823 29.587 0 0 0
3003 5 6 0.155403 128.046 93.452 30.398 0 0 0
3006 5 9 0.134001 126.64 95.549 30.662 0 0 0
3007 5 3 -0.0445419 127.306 95.331 29.792 0 0 0
3008 5 4 -0.0784228 128.589 96.13 30.054 0 0 0
3010 5 6 0.160103 128.303 97.2 30.314 0 0 0
3013 5 9 0.137332 130.058 94.812 30.935 0 0 0
3014 5 3 -0.0465697 129.489 95.683 31.215 0 0 0
3015 5 4 -0.0718897 130.416 96.754 31.717 0 0 0
3016 5 1 0.133286 128.87 95.289 32.03 0 0 0
3017 5 6 0.163264 131.244 96.976 31.042 0 0 0
3020 5 9 0.135694 131.649 95.327 32.829 0 0 0
3021 5 3 -0.0475503 131.093 96.304 33.042 0 0 0
3023 5 1 0.129754 130.277 96.067 33.72 0 0 0
3027 5 9 0.131809 133.555 96.394 34.666 0 0 0
3028 5 3 -0.0510884 132.634 96.838 34.962 0 0 0
3030 5 1 0.130601 132.04 96.003 35.431 0 0 0
4275 7 11 -0.394689 111.083 97.651 32.355 0 0 0
4276 7 8 0.144038 111.759 98.066 31.808 0 0 0
4281 7 6 0.159259 111.425 97.637 35.224 0 0 0
3018 5 11 -0.404527 129.692 97.895 31.99 0 0 0
3019 5 8 0.141568 129.566 97.829 32.933 0 0 0
3024 5 6 0.158263 131.315 98.268 34 0 0 0
3022 5 4 -0.0748092 131.953 97.37 33.705 0 0 0
3025 5 11 -0.394862 133.019 97.802 32.947 0 0 0
3026 5 8 0.152311 133.702 97.879 33.591 0 0 0
3032 5 11 -0.397407 134.154 98.674 35.395 0 0 0
6627 2 10 0 17.135 115.861 32.122 0 0 0
6628 2 10 0 18.147 115.461 32.799 0 0 0
6641 9 10 0 156.405 21.968 41.491 0 0 0
6166 37 16 0.161783 173.676 54.25 37.667 0 0 0
6162 37 15 -0.0294093 174.778 54.184 37.504 0 0 0
6165 37 14 -0.0403396 175.06 53.024 36.596 0 0 0
6167 37 16 0.160453 175.285 54.004 38.481 0 0 0
6170 37 17 -0.398909 174.723 51.9 36.923 0 0 0
6171 37 16 0.15307 175.567 53.174 35.657 0 0 0
6157 37 14 -0.0431837 175.467 58.001 37.283 0 0 0
6158 37 15 -0.0303736 174.983 56.686 37.835 0 0 0
6159 37 15 -0.0380337 175.286 55.502 36.903 0 0 0
6160 37 16 0.158855 173.873 56.747 37.991 0 0 0
6161 37 16 0.156404 175.484 56.513 38.815 0 0 0
6163 37 16 0.181399 176.378 55.434 36.752 0 0 0
6164 37 16 0.181954 174.799 55.673 35.921 0 0 0
6168 37 17 -0.409954 176.031 58.081 36.208 0 0 0
6169 37 16 0.157267 175.314 58.91 37.867 0 0 0
3071 5 4 -0.101739 126.939 90.372 41.095 0 0 0
3072 5 1 0.129598 128.893 91.004 41.45 0 0 0
3073 5 6 0.145564 125.887 90.711 40.943 0 0 0
3074 5 11 -0.416305 127.295 89.411 40.137 0 0 0
3075 5 8 0.141255 127.25 88.544 40.64 0 0 0
4284 7 9 0.129771 113.318 95.916 36.395 0 0 0
4285 7 3 -0.0481402 112.161 95.873 36.432 0 0 0
4286 7 4 -0.0733519 111.762 96.626 37.721 0 0 0
4287 7 1 0.134049 112.028 94.772 36.552 0 0 0
4288 7 6 0.160547 110.637 96.668 37.773 0 0 0
4291 7 9 0.134745 111.674 95.049 39.037 0 0 0
4292 7 3 -0.0513229 112.222 96.016 39.033 0 0 0
4293 7 4 -0.0911122 113.669 95.568 39.192 0 0 0
4294 7 1 0.134293 111.875 96.557 39.917 0 0 0
4296 7 11 -0.403347 113.646 94.941 40.444 0 0 0
4295 7 6 0.148156 113.9 94.875 38.333 0 0 0
4297 7 8 0.152298 114.602 94.978 40.704 0 0 0
4299 7 3 -0.0562977 114.66 96.745 39.319 0 0 0
4300 7 4 -0.0858314 116.068 96.387 39.795 0 0 0
4301 7 1 0.133954 114.86 97.212 38.379 0 0 0
4302 7 6 0.153416 116.528 95.682 39.049 0 0 0
4303 7 11 -0.404885 115.925 95.815 41.103 0 0 0
4309 7 6 0.154673 118.788 96.561 39.637 0 0 0
3048 5 9 0.127247 131.604 97.1 40.202 0 0 0
3050 5 4 -0.0896747 131.594 95.082 41.161 0 0 0
3052 5 6 0.144501 130.5 95.216 41.387 0 0 0
3056 5 3 -0.0639754 131.732 94.078 40.04 0 0 0
3057 5 4 -0.0809641 130.715 92.926 40.143 0 0 0
3058 5 1 0.129488 131.61 94.585 39.078 0 0 0
3059 5 6 0.156841 130.721 92.389 41.132 0 0 0
3060 5 11 -0.403487 131.161 91.969 39.231 0 0 0
3062 5 9 0.13951 129.276 93.734 38.628 0 0 0
3063 5 3 -0.0484449 129.261 93.328 39.665 0 0 0
3064 5 4 -0.0746534 128.213 92.166 39.723 0 0 0
3065 5 1 0.139484 128.813 94.211 40.261 0 0 0
3066 5 6 0.164921 128.515 91.391 39.005 0 0 0
3067 5 11 -0.402156 126.9 92.596 39.339 0 0 0
3068 5 8 0.139921 126.374 91.937 39.77 0 0 0
3070 5 3 -0.0554485 127.96 91.515 41.087 0 0 0
3034 5 9 0.128355 134.662 96.766 36.917 0 0 0
3035 5 3 -0.0627223 133.641 97.173 37.199 0 0 0
3037 5 1 0.131322 133.079 96.293 37.498 0 0 0
3043 5 4 -0.0915297 133.656 96.439 40.371 0 0 0
3044 5 1 0.129485 135.364 97.128 39.43 0 0 0
3045 5 6 0.143253 133.782 95.678 39.58 0 0 0
3046 5 11 -0.404772 134.466 96.116 41.433 0 0 0
3049 5 3 -0.0706573 132.18 96.445 40.895 0 0 0
3055 5 9 0.130542 132.808 93.731 39.92 0 0 0
3061 5 8 0.143137 132.019 91.593 39.427 0 0 0
4289 7 11 -0.40855 112.378 97.905 37.683 0 0 0
4290 7 8 0.134358 113.131 97.788 38.249 0 0 0
4298 7 9 0.1276 114.17 97.534 39.894 0 0 0
4305 7 9 0.127421 116.581 98.489 40.526 0 0 0
4306 7 3 -0.0672085 116.976 97.645 39.937 0 0 0
4307 7 4 -0.0740649 118.416 97.353 40.308 0 0 0
4308 7 1 0.132468 116.929 98.102 38.927 0 0 0
4310 7 11 -0.402755 119.055 98.571 39.991 0 0 0
4311 7 8 0.152662 118.958 98.937 40.857 0 0 0
3029 5 4 -0.0816321 133.051 97.873 35.945 0 0 0
3031 5 6 0.152776 132.183 98.54 36.11 0 0 0
3033 5 8 0.147733 134.907 98.387 35.885 0 0 0
3036 5 4 -0.0924129 133.786 98.121 38.426 0 0 0
3038 5 6 0.144341 132.895 98.71 38.671 0 0 0
3039 5 11 -0.405018 134.869 98.999 38.105 0 0 0
3040 5 8 0.139885 134.509 99.77 37.722 0 0 0
3041 5 9 0.130268 134.418 98.348 40.421 0 0 0
3042 5 3 -0.0530824 134.366 97.551 39.715 0 0 0
4428 7 6 0.156904 96.058 113.977 41.525 0 0 0
4451 7 8 0.141482 89.68 119.652 40.978 0 0 0
4433 7 4 -0.0830609 94.703 116.209 41.163 0 0 0
4435 7 6 0.151623 94.277 115.246 40.822 0 0 0
4436 7 11 -0.398664 95.52 116.766 40.075 0 0 0
4437 7 8 0.147326 95.275 117.676 40.052 0 0 0
4438 7 9 0.129745 94.265 118.307 41.579 0 0 0
4439 7 3 -0.056977 93.691 117.329 41.526 0 0 0
4440 7 4 -0.0810673 92.529 117.471 40.5 0 0 0
4442 7 6 0.149929 92.022 116.537 40.234 0 0 0
4443 7 11 -0.399333 93.119 118.046 39.331 0 0 0
4444 7 8 0.146733 93.36 117.349 38.758 0 0 0
4445 7 9 0.133653 90.792 118.512 39.927 0 0 0
4446 7 3 -0.0513317 91.477 118.547 40.743 0 0 0
4448 7 1 0.132591 92.047 119.508 40.819 0 0 0
4429 7 11 -0.396425 97.568 115.372 41.457 0 0 0
4430 7 8 0.151347 97.144 116.136 41.104 0 0 0
5747 9 16 0.158571 119.539 11.746 45.995 0 0 0
5750 9 17 -0.403669 119.019 9.818 44.211 0 0 0
5739 9 15 -0.0423901 121.663 11.934 45.564 0 0 0
5742 9 15 -0.0331839 120.224 11.627 45.124 0 0 0
5743 9 16 0.179037 121.952 11.235 46.368 0 0 0
5744 9 16 0.179052 122.35 11.795 44.704 0 0 0
5745 9 14 -0.0441634 120.098 10.226 44.603 0 0 0
5746 9 16 0.158524 119.923 12.337 44.317 0 0 0
5748 9 17 -0.410428 124.095 12.915 46.465 0 0 0
5751 9 16 0.150113 120.954 9.572 44.577 0 0 0
5737 9 14 -0.0468791 123.182 13.716 46.531 0 0 0
5738 9 15 -0.0356365 121.785 13.374 46.087 0 0 0
5740 9 16 0.157531 121.483 14.081 45.269 0 0 0
5741 9 16 0.157539 121.1 13.503 46.956 0 0 0
5749 9 16 0.15186 123.383 14.711 46.931 0 0 0
6642 9 10 0 156.499 20.724 41.785 0 0 0
703 2 9 0.152734 175.911 27.371 43.09 0 0 0
704 2 3 -0.0440566 175.148 27.931 43.66 0 0 0
705 2 4 -0.0516623 175.737 28.856 44.669 0 0 0
706 2 1 0.153907 174.513 27.154 44.067 0 0 0
707 2 2 0.146014 174.665 28.432 42.793 0 0 0
708 2 6 0.166434 176.203 28.293 45.509 0 0 0
709 2 11 -0.388596 174.592 29.584 45.109 0 0 0
710 2 8 0.140795 174.179 29.898 44.306 0 0 0
711 2 9 0.137996 176.079 30.451 43.368 0 0 0
712 2 3 -0.0347403 176.739 29.898 44.107 0 0 0
713 2 4 -0.074353 177.246 30.808 45.283 0 0 0
714 2 1 0.141495 177.535 29.475 43.544 0 0 0
715 2 6 0.158578 176.395 31.074 45.934 0 0 0
716 2 11 -0.401637 178.167 30.023 46.061 0 0 0
717 2 8 0.137615 179.005 30.294 45.774 0 0 0
718 2 9 0.134222 178.698 31.839 44.025 0 0 0
719 2 3 -0.0518993 177.968 32.042 44.812 0 0 0
720 2 4 -0.0736554 177.082 33.228 44.472 0 0 0
721 2 1 0.134994 178.641 32.348 45.702 0 0 0
722 2 6 0.159317 176.333 33.318 45.339 0 0 0
723 2 11 -0.404012 176.284 33.092 43.263 0 0 0
724 2 8 0.146382 176.101 34.002 43.084 0 0 0
725 2 9 0.133501 178.847 34.369 43.94 0 0 0
726 2 3 -0.0533739 177.897 34.523 44.508 0 0 0
727 2 4 -0.084301 177.232 35.819 43.921 0 0 0
728 2 1 0.130339 178.317 34.75 45.539 0 0 0
729 2 6 0.156685 177.431 35.77 42.806 0 0 0
730 2 11 -0.395681 175.803 35.849 44.177 0 0 0
731 2 8 0.155753 175.785 36.368 45.014 0 0 0
733 2 3 -0.0531622 177.744 37.15 44.419 0 0 0
735 2 1 0.133522 178.873 37.129 44.405 0 0 0
736 2 6 0.15052 177.929 36.811 46.594 0 0 0
732 2 9 0.13063 177.451 37.995 43.781 0 0 0
734 2 4 -0.0866538 177.33 37.513 45.859 0 0 0
737 2 11 -0.408954 175.912 37.479 46.058 0 0 0
738 2 8 0.139935 175.614 38.346 46.319 0 0 0
739 2 9 0.130543 177.432 39.684 45.488 0 0 0
740 2 3 -0.0494088 177.862 38.918 46.167 0 0 0
742 2 1 0.131838 178.964 39.02 46.042 0 0 0
746 2 9 0.13598 176.281 40.896 47.094 0 0 0
800 2 11 -0.403884 172.563 54.007 47.029 0 0 0
801 2 8 0.15148 171.929 54.677 47.234 0 0 0
5690 5 17 -0.40367 58.043 60.561 45.112 0 0 0
807 2 11 -0.398179 171.397 56.474 46.954 0 0 0
808 2 8 0.148949 170.732 57.248 46.918 0 0 0
5679 5 15 -0.0423901 59.156 63.917 46.003 0 0 0
5682 5 15 -0.0331856 59.351 62.415 45.753 0 0 0
5683 5 16 0.179032 58.796 64.394 45.074 0 0 0
5684 5 16 0.179051 58.397 64.065 46.798 0 0 0
5685 5 14 -0.044164 58.065 61.756 45.349 0 0 0
5686 5 16 0.158522 59.723 61.929 46.687 0 0 0
5688 5 17 -0.410423 59.262 66.633 46.557 0 0 0
5691 5 16 0.15011 57.159 62.332 45.259 0 0 0
5677 5 14 -0.0468789 60.328 66.059 46.681 0 0 0
5678 5 15 -0.0356361 60.475 64.582 46.427 0 0 0
5680 5 16 0.157531 60.84 64.09 47.367 0 0 0
5681 5 16 0.157539 61.229 64.439 45.62 0 0 0
5687 5 16 0.158569 60.098 62.27 44.939 0 0 0
5689 5 16 0.151861 61.205 66.636 46.978 0 0 0
3082 5 8 0.156728 125.112 87.384 41.807 0 0 0
3083 5 9 0.134644 124.367 89.529 42.543 0 0 0
3084 5 3 -0.0434286 124.873 88.983 43.354 0 0 0
3085 5 4 -0.073934 123.893 87.851 43.812 0 0 0
3086 5 1 0.1376 124.969 89.809 44.118 0 0 0
3087 5 6 0.156519 124.486 87.244 44.542 0 0 0
3088 5 11 -0.390529 123.447 87.149 42.695 0 0 0
3089 5 8 0.15272 122.548 86.796 42.886 0 0 0
3090 5 9 0.146421 122.002 89.024 43.685 0 0 0
3091 5 3 -0.0331585 122.684 88.477 44.43 0 0 0
3092 5 4 -0.0826909 121.783 87.483 45.249 0 0 0
3093 5 1 0.146551 123.028 89.327 45.072 0 0 0
3094 5 6 0.154126 122.405 86.833 45.886 0 0 0
3095 5 11 -0.397879 121.184 86.634 44.255 0 0 0
3096 5 8 0.142035 120.639 86.127 44.859 0 0 0
3097 5 9 0.137758 119.947 87.379 46.403 0 0 0
3098 5 3 -0.0555208 120.736 88.21 46.237 0 0 0
3099 5 4 -0.0888509 121.362 88.666 47.56 0 0 0
3100 5 1 0.133757 120.252 89.123 45.741 0 0 0
3102 5 11 -0.416321 122.29 89.702 47.307 0 0 0