LAMMPS data file via write_data, version 15 Sep 2022, timestep = 652594

6487 atoms
22 atom types
6576 bonds
25 bond types
12293 angles
45 angle types
19554 dihedrals
59 dihedral types

-0.04634642343911821 39.44756442343895 xlo xhi
-0.04375042343912128 39.450160423438945 ylo yhi
-0.048176423439116434 39.44573442343895 zlo zhi

Masses

1 1.00794
2 1.00794
3 12.0107
4 12.0107
5 1.00794
6 1.00794
7 1.00794
8 1.00794
9 1.00794
10 15.999
11 15.9994
12 15.9994
13 28.085501
14 12.0107
15 12.0107
16 1.00794
17 15.9994
18 15.9994
19 12.0107
20 12.0107
21 1.00794
22 15.9994

Pair Coeffs # lj/cut/coul/cut/omp

1 0.038 2.44997
2 0.038 2.44997
3 0.039 3.87541
4 0.039 3.87541
5 0.038 2.44997
6 0.038 2.44997
7 0.038 2.44997
8 0 0
9 0.038 2.44997
10 0.228 2.85978
11 0.228 2.85978
12 0.228 2.85978
13 0.04 4.05343
14 0.148 3.61705
15 0.039 3.87541
16 0.038 2.44997
17 0.228 2.85978
18 0.228 2.85978
19 0.148 3.61705
20 0.148 3.61705
21 0 0
22 0.228 2.85978

Bond Coeffs # harmonic/omp

1 340.618 1.105
2 340.618 1.105
3 322.716 1.526
4 340.618 1.105
5 340.618 1.105
6 340.618 1.105
7 384 1.42
8 384 1.42
9 540.634 0.96
10 540.634 0.96
11 833.72 1.208
12 392.8 1.665
13 283.092 1.52
14 340.618 1.105
15 615.322 1.23
16 322.716 1.526
17 340.618 1.105
18 283.092 1.52
19 283.092 1.52
20 340.618 1.105
21 340.618 1.105
22 384 1.42
23 384 1.42
24 384 1.42
25 540.634 0.96

Angle Coeffs # harmonic/omp

1 39.5 106.4
2 44.4 110
3 39.5 106.4
4 44.4 110
5 39.5 106.4
6 46.6 110.5
7 44.4 110
8 44.4 110
9 70 109.5
10 70 109.5
11 46.6 110.5
12 44.4 110
13 58.5 106
14 60 109.5
15 60 109.5
16 33.3 113.4
17 39.5 106.4
18 57 109.5
19 57 109.5
20 57 109.5
21 42.3 113.1
22 31.1 149.8
23 46.6 110.5
24 45 109.5
25 50 120
26 68 120
27 46.6 110.5
28 44.4 110
29 46.6 110.5
30 46.6 110.5
31 50 120
32 70 109.5
33 70 109.5
34 44.4 110
35 70 109.5
36 55 120
37 39.5 106.4
38 44.4 110
39 44.4 110
40 57 109.5
41 57 109.5
42 57 109.5
43 70 109.5
44 70 109.5
45 58.5 106

Dihedral Coeffs # harmonic/omp

1 0.158 1 3
2 0.158 1 3
3 0.158 1 3
4 0.158 1 3
5 0.158 1 3
6 0.158 1 3
7 0.158 1 3
8 0.158 1 3
9 0.158 1 3
10 0.13 1 3
11 0.13 1 3
12 0.13 1 3
13 0.158 1 3
14 0.158 1 3
15 0.158 1 3
16 0.158 1 3
17 0.158 1 3
18 0.13 1 3
19 0.13 1 3
20 0.13 1 3
21 0.13 1 3
22 0.13 1 3
23 0.13 1 3
24 1 1 3
25 0.13 1 3
26 0.13 1 3
27 0.13 1 3
28 0.13 1 3
29 0.158 1 3
30 0.158 1 3
31 0.158 1 3
32 0.158 1 3
33 0.158 1 3
34 0.3 1 3
35 0.158 1 3
36 0.158 1 3
37 0.158 1 3
38 0.158 1 3
39 0.158 1 3
40 0.158 1 3
41 0.158 1 3
42 0.158 1 3
43 0.158 1 3
44 0.158 1 3
45 0.13 1 3
46 0 1 0
47 0 1 0
48 0.158 1 3
49 0.158 1 3
50 0.158 1 3
51 0.158 1 3
52 0.158 1 3
53 0.158 1 3
54 0.158 1 3
55 0.158 1 3
56 0.13 1 3
57 0 1 0
58 0 1 0
59 0.13 1 3

Atoms # full

3660 6 3 0 3.9237100764794635 4.022606724476989 3.340165673514788 0 0 0
3662 6 1 0 3.578043159120151 3.1314391742002217 2.8381440538522895 0 0 0
3659 6 9 0 3.4695915289751085 4.882993115695475 2.7471793808823293 0 0 0
3661 6 4 0 5.434580382160818 4.195615855895486 3.1356857898088126 0 0 0
3654 6 4 0 3.384901242290187 4.02529557758925 4.711047242862515 0 0 0
3657 6 11 0 1.9263817619493542 3.9647860200923297 4.688309786538143 0 0 0
3656 6 6 0 3.575407431953922 5.02637810329589 5.152636397633069 0 0 0
3663 6 6 0 5.547260859121723 4.290986509681809 2.017801573601119 0 0 0
3666 6 9 0 6.253579279081913 5.418943690784367 4.733253459494486 0 0 0
3658 6 8 0 1.7797816196520915 3.1364031090002253 4.2203596053995565 0 0 0
3667 6 3 0 6.013603466439282 5.503942153792031 3.675955434378327 0 0 0
6031 28 16 0 5.345303580314715 1.6566914674576498 1.4338067957436549 0 0 0
3669 6 1 0 5.225178294489711 6.320274019182196 3.6838498125216614 0 0 0
3652 6 9 0 3.6380633967838327 1.9283691257047295 5.1934631212246485 0 0 0
3653 6 3 0 3.8555313716997475 2.8546969561559647 5.632438484520203 0 0 0
3655 6 1 0 4.94010184569848 2.915753362817317 5.630383127349879 0 0 0
6027 28 15 0 5.345262903149624 0.5814993291800181 1.7844557564490355 0 0 0
3795 6 1 0 0.4860211499485865 5.37436386346578 0.9224093022414332 1 0 0
3751 6 3 0 0.36845721713920554 1.042292771220428 5.894293990520663 1 0 0
3753 6 1 0 0.5429993720340958 1.2971516079719705 4.8632344333207245 1 0 0
6032 28 16 0 5.580679091929072 0.6274047739084688 2.8507751733497306 0 0 0
3802 6 1 0 0.6117705032602826 6.611070165419869 2.631106411910527 0 0 0
6036 28 16 0 3.2882931580663444 0.15456479281578053 0.9160976486071726 0 0 0
934 2 21 0 3.9170619563316156 0.17101949039979303 3.565947223446968 0 1 1
6025 28 16 0 5.329195315441756 0.30068904733029317 38.6926016487559 0 1 0
3664 6 11 0 6.181845544727134 3.105362174569883 3.6791164806560093 0 0 0
3665 6 8 0 5.915322673055254 2.295668321352815 3.188455228352698 0 0 0
3670 6 6 0 6.889398647967689 6.059981591689124 1.8114307808123506 0 0 0
3671 6 11 0 8.250500607414894 4.9294730140791945 2.9558583078556784 0 0 0
6611 2 5 0 10.666031744634024 3.2995915268354126 2.2110476174675116 0 0 1
5750 9 17 0 10.626740607964761 3.121116184529094 5.841020435993494 0 1 0
5745 9 14 0 11.681926102031797 3.2799201881743283 5.181023392450039 0 1 0
3672 6 8 0 8.267446317315212 4.755183081173374 3.9036570385020437 0 0 0
5751 9 16 0 11.945656279844526 4.33914835182311 5.054420228865557 0 0 0
5747 9 16 0 12.280436877245684 1.2468101831785028 5.154085047016789 0 1 0
3683 6 1 0 8.423943926195369 5.613829856230698 5.785726232622901 0 0 0
5742 9 15 0 12.819520220127645 2.1985527748392024 5.200270487686152 0 1 0
3668 6 4 0 7.241517583270649 5.926197409053006 2.860542413558012 0 0 0
6539 2 12 0 10.286736569007424 2.687586114017311 1.5323459682298453 0 0 1
5746 9 16 0 13.344686945662067 2.1857549885094976 6.145676396444098 0 0 0
5739 9 15 0 13.810814663364248 2.3057328351001547 4.016058842519264 0 1 0
5743 9 16 0 13.286217104266058 2.336571600764741 3.0934676990384333 0 1 1
5744 9 16 0 14.422161125134561 3.2114510590229766 3.973956678161257 0 1 0
6028 28 16 0 7.363338467945646 0.4047833070429767 1.2544704761601653 0 0 1
4493 7 8 0 10.651852612049698 0.61215862366785 0.4868607891399419 0 1 0
6612 2 5 0 12.971855888869133 1.661872451775459 0.7469487878196895 0 0 1
6561 2 12 0 11.17229277180104 6.67363298196868 1.515243190353308 0 0 0
6566 2 13 0 12.318779559659289 7.044459479595728 2.6956017961711476 0 0 0
6619 2 5 0 12.106429339696762 7.597849493904218 4.753056350769185 0 0 0
6559 2 12 0 11.51345678100064 7.581940574243268 4.015245225192602 0 0 0
3686 6 8 0 10.826147798805767 5.728758608462189 6.462193848505831 0 0 0
6567 2 12 0 13.255618663828136 5.676724592514731 3.032281550511842 0 0 0
5741 9 16 0 15.349064678673665 1.3409640502778828 5.025312297676295 0 1 0
6623 2 5 0 13.484902730353207 5.151567213652315 2.1940174575000064 0 0 0
5740 9 16 0 15.451220468576675 1.2616767286391133 3.280778340297503 0 1 0
5738 9 15 0 14.786645689599839 1.2124620096490442 4.1043908679845975 0 1 0
3260 5 4 0 18.171620457001055 3.0743167029324336 2.3879455182218936 0 0 0
3266 5 3 0 18.74034647138816 4.269365022375417 3.1353199718887335 0 0 0
3269 5 6 0 16.734899526421284 5.300611252050945 2.9951701787309832 0 0 0
3267 5 4 0 17.609712107147214 5.11984987912736 3.6557309618074885 0 0 0
3262 5 6 0 17.258049839844148 2.6109967687816558 2.860492994966301 0 0 0
3270 5 11 0 17.117253587752632 4.523990194257591 4.849237607265312 0 0 0
3271 5 8 0 16.767475939323365 3.6318003015337483 4.646045795501837 0 0 0
3263 5 11 0 17.755774807204453 3.5597652548733536 1.0745903385682782 0 0 0
3331 5 1 0 17.11338508972135 1.3835856586525976 6.274216850226897 0 0 0
3264 5 8 0 18.072019063700452 2.964216606049247 0.3547172787080263 0 0 0
3253 5 4 0 19.125221745277646 0.7433337930530353 1.5474161410295557 0 1 0
3265 5 9 0 19.434017174476928 4.928676717039028 2.466445126568144 0 0 0
3259 5 3 0 19.276163501046863 2.049496978539285 2.3080362473674656 0 1 0
3256 5 18 0 19.07735623047246 1.0359435012296703 0.1578416324199285 0 1 1
3268 5 1 0 19.373314792477935 3.8512074258914004 3.9397880147690754 0 0 0
3275 5 1 0 19.02378275371209 6.364836017298697 4.5311039834546065 0 0 0
3273 5 3 0 18.04921665426521 6.529915086113341 4.04274829886163 0 0 0
3261 5 1 0 19.638729510655175 1.8574505904020102 3.3443978316079965 0 1 1
3272 5 9 0 18.361069715631206 7.20184414107236 3.225505573721618 0 0 0
3276 5 6 0 17.164681490655454 6.834175335875562 5.976879020533483 0 0 0
3258 5 9 0 20.015477855731085 2.578574913621975 1.6531313852875171 0 1 1
3186 5 11 0 22.165537530228683 4.010087504827823 3.922545069903742 0 0 0
3183 5 4 0 22.438995008184385 3.5604837235335594 5.1881541088955325 0 0 0
3185 5 6 0 23.45292599984936 3.9494536012602985 5.44361086316635 0 0 0
3190 5 4 0 23.73556160974165 1.5150593861587536 6.038729090350106 0 0 0
3249 5 11 0 22.13616531139719 1.357570987649916 1.4084065924168971 0 1 1
3187 5 8 0 22.391401976469954 3.296763369335591 3.3189742693691713 0 0 0
3189 5 3 0 22.585689708694844 2.047841901789135 5.124019027862552 0 0 0
3188 5 9 0 22.855314124867597 1.7832446095879326 4.085949607488636 0 0 0
3191 5 1 0 21.587916737051664 1.6194100499324577 5.365314838713883 0 0 0
3198 5 1 0 25.116433946532677 1.2612800978306706 4.3938271655808805 0 0 0
3196 5 3 0 25.131701884705357 1.557080709192845 5.429452260471216 0 0 0
3118 5 9 0 24.324604749617993 4.605677498143356 2.7853443039253847 0 0 0
3195 5 9 0 25.43782195955217 2.6638157220144163 5.318187908910976 0 0 0
3250 5 8 0 22.562115525441783 1.6333728467602138 0.5863110452737019 0 1 1
3040 5 8 0 20.695046407605965 5.317511890943387 0.5760043105359366 0 0 1
3197 5 4 0 26.28627231863509 0.9335153951737494 6.199718732078079 0 0 0
3124 5 8 0 26.738241919273094 2.906076776674288 0.9937387012098111 0 0 1
3123 5 11 0 25.961271415664385 3.438324170132477 1.2398904828772104 0 0 1
3113 5 4 0 24.517460182490193 6.406651653884182 1.6787602892720281 0 0 0
3178 5 6 0 21.564646393117897 6.1518115919787295 5.500399126490576 0 0 0
3115 5 6 0 23.99810394213527 5.956050726656266 0.8635563049742778 0 0 0
3119 5 3 0 25.1973813538358 5.295702960173553 2.583258750292181 0 0 0
3111 5 9 0 22.69253302042421 6.239416528094307 2.8895263356955287 0 0 0
3181 5 9 0 20.41702819190543 3.938379438757693 6.061821247832688 0 0 0
3182 5 3 0 21.424019749064293 4.066740886232544 6.234193065142289 0 0 0
3110 5 8 0 22.928302886537807 7.563705078278167 -0.024679015796043865 0 0 0
3193 5 11 0 23.764629565906816 2.227556391524805 7.25003226089782 0 0 0
3177 5 1 0 23.724977625617864 6.023997604582918 6.344014368116706 0 0 0
3039 5 11 0 21.132144275046954 4.495546666475551 0.35673990172247894 0 0 1
3120 5 4 0 26.398425967610333 4.593769053412371 1.9247790859294813 0 0 1
3125 5 9 0 26.970383493764416 3.579570533569304 3.6854244814323884 0 0 1
3203 5 3 0 27.488485324897304 1.1675387880968116 5.346621095947337 0 0 0
3130 5 11 0 28.324691241843468 2.3757913726716895 1.7603427588111105 0 0 1
3126 5 3 0 27.383840265076724 4.31179725343728 3.0230377177912446 0 0 1
3131 5 8 0 29.10698796529296 1.7840816638081418 1.8338421637351223 0 0 1
3122 5 6 0 26.785441521742666 5.243902466924778 1.1511296476559925 0 0 1
3127 5 4 0 28.609161108727672 3.5994691873003513 2.5275286227313534 0 0 1
3129 5 6 0 29.31760335766828 3.3121929762930087 3.3009335076310227 0 0 1
3212 5 1 0 30.150463296360527 1.6007854665408525 4.697033072400513 0 1 0
3202 5 9 0 27.691398396247234 2.2015642642093556 5.208409651563601 0 0 0
3138 5 8 0 31.637799799698286 3.4782810351521394 2.0857690516783256 0 0 1
3135 5 1 0 29.746030682177715 3.707525618210595 0.8160942914786206 0 0 1
3133 5 3 0 29.42641435867854 4.409835933858228 1.4840393304285453 0 0 1
2300 4 1 0 31.363259921062962 5.362501210113817 5.577806582342613 0 0 0
3137 5 11 0 31.62192753231022 4.273104462563953 2.6176693551723296 0 0 1
3204 5 4 0 28.692401833148928 0.601857587535888 6.065171556762533 0 0 0
3128 5 1 0 27.601333759364742 5.245833345069111 3.537004422419423 0 0 1
2293 4 1 0 32.72815021923937 3.3404186129528775 4.822260991024351 0 0 0
3132 5 9 0 28.852747454590055 5.035595570796289 0.8405801415123553 0 0 1
2269 4 9 0 32.260839078844576 1.780227301273788 1.0406413102140266 0 0 0
3134 5 4 0 30.728416462110555 5.144101004721475 1.9949110838202948 0 0 1
3136 5 6 0 31.030603383975865 5.6106494838194845 1.0377867091140718 0 0 1
3142 5 1 0 29.906419002778836 5.974112067608467 3.8025763374468227 0 0 1
3140 5 3 0 30.545194194709573 6.336615880063511 2.991332212116812 0 0 1
3139 5 9 0 31.584999072158883 6.553771908881757 3.3979141044070325 0 0 1
2291 4 3 0 33.23095503072743 3.1582392404288018 5.749357086194945 0 0 0
2272 4 1 0 33.45440164792985 2.987882730562343 0.7401285303872671 0 0 0
2270 4 3 0 33.133116652787606 1.9711296553207065 0.42592970123740803 0 0 0
3205 5 1 0 27.376363089541435 0.6834081885687576 4.3496653712571485 0 0 0
3216 5 9 0 30.365472969426584 0.33317726817593646 2.4634483208363984 0 1 0
3210 5 3 0 30.042366404583166 0.6595080916939283 5.315392596221863 0 0 0
2279 4 1 0 33.46605148488612 0.0967837005566119 2.747609375407292 0 0 0
2290 4 9 0 32.62778532333829 2.329629839003229 6.2061558835067885 0 0 0
3805 6 8 0 38.00555395343888 5.4917783982728645 4.568066438504487 -1 0 0
3796 6 6 0 38.27360546754134 4.964276766123684 2.911908040891767 0 0 0
3793 6 3 0 38.896109276735416 5.3171144472578185 0.8938818851742301 0 0 0
2286 4 1 0 33.56433829572254 0.9946566560868884 4.785970288599635 0 0 0
3794 6 4 0 38.27293069663372 5.809291752292431 2.22446667498097 0 0 0
2280 4 6 0 33.94547289158911 2.7584555044426615 2.851669779188577 0 0 0
3804 6 11 0 38.71735322079653 6.015031005314706 4.944145857342343 -1 0 0
2277 4 3 0 34.296070496621965 0.609806250290877 2.230813450316876 0 0 0
3763 6 8 0 38.26167485227111 0.5946790213278277 2.283413135803684 0 0 0
2284 4 3 0 34.464323564876445 1.5501662354651886 4.5038043254722755 0 0 0
2278 4 4 0 34.598689873326194 1.9072879303549979 3.0489107687716497 0 0 0
2282 4 8 0 35.91553763978419 2.895587007373216 2.118151599667791 0 0 0
2281 4 11 0 35.974129450226776 2.223751584314905 2.8193407182896304 0 0 0
3762 6 11 0 38.36126326658436 0.5688735758531094 3.2326569223072754 0 0 0
2287 4 6 0 35.237076357472084 3.5506227038710207 5.133412475660697 0 0 0
2283 4 9 0 35.24427632637675 0.7731758859536527 4.664188978103738 0 0 0
2271 4 4 0 34.125016093489535 0.8451957724671844 0.7337512533453369 0 0 0
2273 4 6 0 35.04766290408414 1.09908041582632 0.26021454761315316 0 0 0
3768 6 6 0 37.20329984643559 39.2816539350672 1.155721618790767 0 -1 0
2285 4 4 0 34.67698263178887 2.690159067810175 5.525909392542154 0 0 0
3789 6 6 0 38.648779396857876 3.121896521405504 1.0104276305909168 -1 0 0
3792 6 9 0 38.72395837858713 5.9752897467265464 0.03917596162973107 0 0 0
3781 6 1 0 38.511916416808404 1.1615347531226843 0.29706803943318777 0 0 0
3791 6 8 0 36.62030605681729 3.267018010010354 39.33496354135922 -1 0 -1
3787 6 4 0 38.33711404140441 3.994363826231008 0.3661133054534179 0 0 0
3790 6 11 0 36.89596854284088 4.032143893574809 0.3372845142149968 0 0 0
2251 4 1 0 33.8277310618439 6.9888790143919435 39.25629620655381 0 0 0
6453 2 12 0 3.748435620836033 6.4540143345394405 0.4101261806263648 0 0 0
3810 6 6 0 1.9494932929846482 7.198036002015645 4.3483916302592664 0 0 0
3825 6 11 0 5.840773962509703 10.070904467675083 5.011364423823247 0 0 0
3808 6 4 0 1.5188979616556046 7.734127117866461 5.2213846850096335 0 0 0
3816 6 1 0 2.4714008538577295 9.602421188464076 4.926074031120262 0 0 0
4994 8 3 0 1.5012453373906727 10.197669179844645 1.384444518989814 0 0 1
4993 8 9 0 2.042107041517213 9.679485195524439 2.212233402108584 0 0 1
3818 6 11 0 4.336961710109809 7.833615228437094 5.237650338503159 0 0 0
3819 6 8 0 3.9083050351333832 6.95943660721193 5.196018610701457 0 0 0
4996 8 1 0 0.4503061510105 10.031737762346939 1.5474999703604764 0 0 1
3824 6 6 0 4.3292159333862275 11.182300415148898 5.665017961509776 0 0 0
5003 8 1 0 2.8255374624787195 11.784321917869278 3.2519991688277425 0 0 0
5002 8 4 0 0.7519230912884406 12.269471601172485 3.667792788203969 0 0 0
3814 6 3 0 2.343420194702165 8.895829946279342 5.799953925743381 0 0 0
5010 8 1 0 1.9069108807603543 11.822623644669353 5.431504787525653 1 0 0
3822 6 4 0 5.15510155018626 10.592768010200347 6.091178834193557 0 0 0
3826 6 8 0 5.2039431125392035 9.49942220646203 4.6002198351068495 0 0 0
4995 8 4 0 1.7570441225889373 11.706188593843871 1.348760082697465 0 0 1
6580 2 5 0 3.963243813387895 7.360302206170274 0.4196767826128598 0 0 1
5001 8 3 0 1.9474405617246235 12.286936231637789 2.802280536984898 0 0 0
4997 8 6 0 0.9326847731249096 12.130580323449697 0.8090178404957241 0 0 0
4998 8 11 0 3.0203538409458988 12.006475835332644 0.6710470861027044 1 0 0
4992 8 8 0 1.7826862638211967 7.863663895244997 1.1106814723366982 1 0 1
4991 8 11 0 1.4790004852797785 8.092116852376465 0.2209948838379433 1 0 1
6620 2 5 0 5.819099247065161 10.027871441100531 1.4679635845604502 0 0 0
6560 2 12 0 5.443020593715717 9.729528045429563 0.6623501066259949 0 0 0
5004 8 6 0 0.22705668311518584 11.293458251553366 3.6461172249554417 0 0 0
4988 8 4 0 1.658611285307352 9.49096023057904 0.05738354701881064 0 0 1
3673 6 9 0 7.072781794787011 8.068591028761217 3.0483481081869033 0 0 0
3807 6 3 0 0.17739046155682944 8.280259361531195 4.756158902549916 0 0 0
3809 6 1 0 0.36213237085286504 8.999220996419705 3.962212199433595 0 0 0
3799 6 9 0 38.70683658219542 7.72124168513781 2.071877257909357 -1 0 0
5008 8 3 0 1.1542445213424755 12.6155052026024 5.109936696808272 1 0 0
4999 8 8 0 2.896083474167679 11.489134000443702 39.357084365268456 1 0 -1
3680 6 9 0 9.71890123415438 6.243440828175566 4.913996923234285 0 0 0
3681 6 3 0 8.9256481295515 6.583479934617135 5.575146694884795 0 0 0
3827 6 9 0 6.718449643894381 12.020104142184127 6.093294396944139 0 0 0
3677 6 6 0 7.007007581208791 7.335500969333356 5.428407714388138 0 0 0
3674 6 3 0 7.823941155643755 7.262399526785819 3.3748917200293596 0 0 0
3676 6 1 0 8.788296162337447 7.45977209170725 2.8972743623243833 0 0 0
3675 6 4 0 8.003752500210798 7.49349655950606 4.876354809061226 0 0 0
4252 7 1 0 11.129995754202096 10.676039546103427 3.9271236370065625 0 0 0
4249 7 9 0 10.792519548847011 9.977640097536646 5.4722080243160764 0 0 0
4250 7 3 0 11.180417154663987 10.915749014714487 4.9896824940921825 0 0 0
4253 7 6 0 9.102190107985713 11.500691343915125 4.981119622997242 0 0 0
4251 7 4 0 10.103335114105677 12.001657273680408 5.1905695764109705 0 0 0
6654 15 10 0 11.692047841633892 11.817385365346134 1.150654654747781 1 0 1
6653 15 10 0 11.360732974722668 10.753448891446403 1.5064027135456723 1 0 1
4246 7 6 0 12.524191803335537 12.283610236592784 5.946963833065781 0 0 0
3678 6 11 0 8.329364632790446 8.851753705613667 5.153042041962838 0 0 0
3679 6 8 0 8.146398945590015 9.330776047466822 4.315088399377839 0 0 0
4256 7 9 0 10.88514850710767 13.129828454803874 3.2622382842566937 0 0 0
4261 7 11 0 8.38978233265218 13.280304728420521 3.0196533860553014 0 0 0
4262 7 8 0 8.834792259008251 13.47236108619751 2.194042726685338 0 0 0
4257 7 3 0 10.353996594855248 13.285805201873053 4.233801150707944 0 0 0
4254 7 11 0 9.999460444557075 12.46189022893313 6.527241165670883 0 0 0
4244 7 4 0 12.627381961220616 11.371408641059675 5.336510514758434 0 0 0
6568 2 12 0 13.261960641713626 8.3184144246014 2.302722274934617 0 0 0
6445 2 12 0 14.926168175370693 6.887299215218761 0.5457772842633458 0 0 1
3277 5 11 0 15.698308578554562 6.924900453726935 4.581510966492844 0 0 0
3278 5 8 0 15.085533395522946 7.470202382653857 5.067846136482266 0 0 0
4245 7 1 0 13.015906242016758 12.42172337363825 3.44105049711592 0 0 0
4243 7 3 0 13.501135085825613 11.58004875319023 4.072940863157666 0 0 0
6575 2 5 0 15.425044797204164 7.582293283004764 0.9953412524298706 0 0 1
3274 5 4 0 17.034853075132933 7.193881972678964 4.961632740813259 0 0 0
6624 2 5 0 13.622582860080863 8.509820277717902 3.134882553795752 0 0 0
3279 5 9 0 16.103093600815317 9.178462105047455 5.2584171088661655 0 0 0
3280 5 3 0 17.054367329418316 8.696358560132007 4.986105715458669 0 0 0
3281 5 4 0 18.20280750124049 9.316281425224604 5.815766836101881 0 0 0
3282 5 1 0 17.18283301685792 8.944229902004366 3.9499334715880683 0 0 0
4242 7 9 0 13.518079251465036 10.712065476794791 3.3479329721038082 0 0 0
4235 7 9 0 16.165107296886443 11.60189359131807 2.5728072881015667 0 0 1
4239 7 6 0 15.693461419814746 11.489777533508143 4.748190619006056 0 0 0
4237 7 4 0 14.966155145409296 12.144820460106093 4.309379358405525 0 0 0
4236 7 3 0 15.721586143127384 12.559794392990366 3.0144786860323345 0 0 0
5645 2 22 0 18.32639207425792 8.890220515999712 1.5770469583658766 0 0 1
5646 2 16 0 18.8012711241116 10.819450585590065 1.325617638286431 0 0 1
5640 2 19 0 19.032125787488493 9.874752704453677 0.7805625703285041 0 0 1
6572 2 5 0 15.54703693883359 10.949531391719958 0.08128193253460025 0 0 0
3284 5 11 0 18.33576071718603 10.606283737025132 5.265149904457125 0 0 0
4238 7 1 0 15.032789048757174 12.918916112166283 2.238799798844153 0 0 0
6437 2 12 0 14.650406813408576 10.745145838658953 0.11769513072448776 0 0 0
3103 5 21 0 18.578180827545616 8.022024922897279 1.17744442767695 0 0 1
3285 5 8 0 17.6463115944986 11.059458633391216 5.728152802879584 0 0 0
3283 5 6 0 19.101370449522705 8.760917512877525 5.673583761557566 0 0 0
4234 7 8 0 17.875473961158836 12.199902573117157 3.8977090388092974 0 0 0
3121 5 1 0 25.44906782923172 5.669454743662102 3.558051695715173 0 0 0
3101 5 6 0 19.898698125691766 9.947498038116835 2.9575103984336764 0 0 0
3112 5 3 0 23.381192538630412 7.015604176042078 2.5127564303925585 0 0 0
3114 5 1 0 23.70414227520086 7.3416566117403494 3.474377332243841 0 0 0
3094 5 6 0 20.264820055919188 12.468635651845933 3.4542622392682176 0 0 0
3104 5 9 0 20.828865326454746 7.8622362183925345 3.1502380253892412 0 0 0
3100 5 1 0 21.513784050150267 11.606414747700457 1.5099843614911315 0 0 1
3099 5 4 0 20.747764310863552 9.783735330594741 2.309912414693445 0 0 0
3108 5 6 0 23.316471109076964 8.996324472543181 1.651923351291954 0 0 0
3106 5 4 0 22.61777814920932 8.123875107897915 1.868517046886322 0 0 0
3105 5 3 0 21.568162202619174 8.622076722098111 2.8267286920780434 0 0 0
3107 5 1 0 22.042681255194264 8.96021428742925 3.7331628919764976 0 0 0
3097 5 9 0 22.666154462434307 10.711230622322367 2.625509812059607 0 0 1
3098 5 3 0 21.640503141130463 11.114760782667284 2.5030158944773353 0 0 1
3095 5 11 0 21.25806908564563 11.42355824453929 4.958834238704754 0 0 0
3092 5 4 0 21.278809585704863 12.042456802660446 3.6479292070540312 0 0 0
3096 5 8 0 21.346531795223182 12.242191893455407 5.4924932531679405 0 0 0
3102 5 18 0 20.3927399852374 9.554165248341628 0.9510844382163216 0 0 1
3086 5 1 0 24.647582552169986 11.456205097656813 2.8847950036826675 0 0 1
3084 5 3 0 24.92833125491858 12.466079000662587 3.0371746982877266 0 0 1
3116 5 11 0 25.382198460285256 7.468480101557085 1.2583349293476747 0 0 1
3117 5 8 0 25.84280356943959 7.207670606538041 0.4618362211165561 0 0 1
3079 5 1 0 26.143907978777012 11.402366288946514 1.1062972780255393 0 0 1
3080 5 6 0 23.90356749378711 13.215571213105344 1.37964913947825 0 0 1
3078 5 4 0 24.978550542388074 13.113216435198655 1.670986471518414 0 0 1
3077 5 3 0 25.63834270988293 12.261220366559098 0.5986085818282979 0 0 1
3164 5 6 0 24.156808950488237 8.3855801893808 5.940217596120128 0 0 0
3162 5 4 0 24.707913477775197 8.773611171723227 6.885024732008541 0 0 0
3109 5 11 0 22.159692153796467 7.778860355633836 0.5366384417285911 0 0 0
3088 5 11 0 23.886560100569383 12.098608456708304 5.100019071246577 0 0 0
3091 5 3 0 22.31185488613629 13.222550488103488 3.619062826555626 0 0 1
3157 5 6 0 25.603730600563296 9.650151137543856 4.585757481332832 0 0 0
3085 5 4 0 23.849334346561875 13.026252908005274 4.041452399064398 0 0 0
3089 5 8 0 24.813272120794295 12.013817356976983 5.398030065718001 0 0 0
3166 5 8 0 24.85360594373348 10.173857111193444 8.058068675377045 0 0 0
3165 5 11 0 24.301789701283973 10.092704570145349 7.265763174580845 0 0 0
3141 5 4 0 29.902569300963997 7.570528636287813 2.426906181137195 0 0 1
3143 5 6 0 28.941248593242296 7.272219650124534 2.092761752846742 0 0 1
3145 5 8 0 31.46988347398317 8.591631386765748 1.9759495474725868 0 0 1
3083 5 9 0 25.92920346918085 12.548162338560523 3.5499476904404177 0 0 1
3076 5 9 0 26.50715070253514 12.792400281569321 0.10873372897785455 0 0 1
3163 5 1 0 26.532569041199526 7.8977834184266555 6.261292151193695 0 0 0
3161 5 3 0 26.16963647796541 8.855477279974304 6.568490692010687 0 0 0
3155 5 4 0 26.37645189516013 9.817777885521098 5.370118520385777 0 0 0
3152 5 8 0 26.891801855562047 9.250933004199615 2.660902229502589 0 0 0
3150 5 6 0 27.97426293652015 7.749058013719738 4.666891507558678 0 0 1
3151 5 11 0 27.13249241527093 8.384598925937404 2.9884314420821796 0 0 0
3148 5 4 0 28.133056914365817 8.50668993944498 3.994914399848014 0 0 0
3149 5 1 0 30.271049125426668 8.439676901488534 4.3586160477726565 0 0 1
3147 5 3 0 29.627044529896853 8.615212919815393 3.51880991625245 0 0 1
3144 5 11 0 30.79942334994368 8.131027281271702 1.436494720394464 0 0 1
3146 5 9 0 29.825151560509745 9.625033868624643 3.21041224872175 0 0 0
3154 5 3 0 27.84989218154102 9.764699156804992 4.873787543004749 0 0 0
3153 5 9 0 28.209702120259596 10.74549718874298 4.432265188210721 0 0 0
3156 5 1 0 28.399620407956498 9.593106259294274 5.7644022716552135 0 0 0
3158 5 11 0 26.34822615475171 11.156430087630984 5.829878512483759 0 0 0
3159 5 8 0 26.166917267452718 11.12175058688248 6.758276710584773 0 0 0
2223 4 1 0 32.03413389262077 11.990713821910996 2.722024920828311 0 0 0
2388 4 9 0 31.795709921212126 13.219816384223204 6.529218468810087 0 0 0
2389 4 3 0 31.858852546150704 13.500043266920544 7.582470550209275 0 0 0
3797 6 11 0 36.91558587281131 6.303167073945758 2.0480876278041853 0 0 0
3798 6 8 0 36.992573056238676 6.984480646265693 1.3765827993212871 0 0 0
6636 6 10 0 33.959555598881494 7.327346761867791 4.866873702370427 0 0 0
3800 6 3 0 39.02909074212547 6.970743194087183 2.7568941895357333 -1 0 0
3806 6 9 0 39.23595786939811 8.802898970046325 5.613346412284568 -1 0 0
3801 6 4 0 38.69345201890032 7.254127154575838 4.20140492910551 -1 0 0
3803 6 6 0 37.69969480702098 7.699825478594048 4.0541929219411115 -1 0 0
2233 4 8 0 35.388375751440066 9.834370068337185 4.593598336219656 0 0 0
2231 4 6 0 34.07034792555495 10.601880068843295 2.6413050466923034 0 0 1
2244 4 1 0 34.9845309956799 8.444658276394895 1.282816887059269 0 0 1
2232 4 11 0 34.91860727954866 10.64985453273613 4.4226736853868625 0 0 0
2229 4 4 0 35.03227368946156 10.969021724957265 3.0290630676994863 0 0 1
2234 4 9 0 36.54488502388122 9.30091210947167 2.7964803553975845 0 0 1
2235 4 3 0 36.271691316296106 10.303505229338242 2.4290822633936853 0 0 1
2237 4 1 0 37.208005747543226 10.889142264696396 2.694294346973345 0 0 1
2236 4 4 0 36.25499815845604 10.043741593012353 0.8983973712271554 0 0 1
2241 4 9 0 34.1319504931119 9.847095381906867 0.6569128680477024 0 0 1
2242 4 3 0 35.024352904091515 9.204858945814898 0.5186829710812908 0 0 1
2228 4 3 0 35.06630181527463 12.508666679514919 2.898952585036418 0 0 1
2230 4 1 0 35.30690653423268 12.70208950748679 1.8795409617654282 0 0 1
2227 4 9 0 35.91370205810235 12.872779116187123 3.511550779770825 0 0 1
6635 6 10 0 33.410393111055804 8.125182704679037 4.14673205510185 0 0 0
4986 8 9 0 39.32739949296163 10.41737093573676 39.13077436399935 -1 0 0
2238 4 6 0 37.18859830843137 9.498549581963186 0.5844610730666372 0 0 1
2239 4 11 0 36.19336863207423 11.24533972960823 0.17641142057453038 0 0 1
2386 4 11 0 33.791200141917116 12.035963751609406 7.343582285593675 0 0 0
2387 4 8 0 33.370099556360636 11.399723029302008 6.74678783449662 0 0 0
6647 12 10 0 4.07957751047563 18.171093473482 1.3136421193552617 1 0 1
5000 8 9 0 2.2360817455946207 13.326085904608684 2.7724878614937563 0 0 1
6648 12 10 0 4.750595112308527 17.324818196333133 1.90391713633825 1 0 1
5007 8 9 0 1.590534536988269 13.608248118932226 5.186659494106958 1 0 0
3841 6 9 0 3.6753536362218586 15.769920046857616 5.153366036992 0 0 0
4723 7 11 0 1.694152302839135 17.484361370287612 3.503897469748023 0 0 0
3842 6 3 0 4.427798389965686 16.10463598321526 5.927035617601624 0 0 0
3834 6 9 0 5.06527615464058 13.476697300964801 5.50598912459241 0 0 0
4722 7 6 0 0.990105003561891 17.93208851361894 5.380252649472171 0 0 0
4724 7 8 0 1.6899746529387967 16.515819876244166 3.5514804714679293 0 0 0
4720 7 4 0 0.6346665100083219 17.950686905941023 4.345277903292268 0 0 0
3847 6 8 0 4.236539152357876 19.214265182364706 5.777973173297638 0 0 0
3846 6 11 0 4.031390862437264 18.36642954974582 5.419146882661528 0 0 0
3844 6 1 0 5.3957001572795 15.958277460593298 5.42509348393073 0 0 0
4715 7 6 0 0.7568943852270446 19.042407150885413 1.9369184291957817 0 0 0
4713 7 4 0 -0.00044158452711846874 19.63265736447376 2.428587144111224 0 0 0
2801 4 9 0 2.2596480838918316 16.1067580527401 0.7498004236991043 0 0 0
3843 6 4 0 4.324645511821806 17.507891619653755 6.44612717024051 0 0 0
3835 6 3 0 5.431217884234415 13.823279291905614 6.572187850241657 0 0 0
3837 6 1 0 6.444276709884883 14.317743352807742 6.449164103867296 0 0 0
2802 4 3 0 1.7988336742362396 15.831349813850588 39.24682130418344 0 0 -1
5006 8 8 0 0.27299568268740787 14.052659115766595 3.3565954163767997 0 0 0
2804 4 1 0 1.854791561452082 14.76357943764585 38.99686239611518 0 0 -1
2794 4 9 0 4.607730998392755 16.089333679374903 38.97930713309985 0 0 -1
3853 6 11 0 6.805291443519323 18.019226410697367 5.200649149008616 0 0 0
3854 6 8 0 7.695959835683712 17.948172508466843 4.854388270316726 0 0 0
4269 7 8 0 7.020551609248021 14.891755534285219 3.541996058644016 0 0 0
4260 7 6 0 8.386693162105532 14.07759053159952 4.937602665674413 0 0 0
4259 7 1 0 11.080068089553073 13.932383726194102 4.709626629815306 0 0 0
4258 7 4 0 9.056267339328478 14.019605299667752 4.006768903216947 0 0 0
4274 7 6 0 8.13454232225904 17.45148249064253 0.3361372386862971 0 0 1
4268 7 11 0 7.03226990696832 15.841803929692194 3.4690697478623505 0 0 0
4266 7 1 0 9.663286128515818 16.005015257168363 4.32910221051982 0 0 1
4273 7 1 0 7.240106932681829 17.921054045897943 2.5534841543566267 0 0 1
4264 7 3 0 9.366244456608255 15.409187302092063 3.4925727777328786 0 0 0