units			real
dimension		3
processors		* * *
boundary		p p p
atom_style		full
pair_style		lj/cut 10.0
bond_style		harmonic
angle_style 	harmonic
read_data		PVA4_OXY10_GA20_linked_equilibrated.data
Reading data file ...
  orthogonal box = (30.180557 29.163058 29.953059) to (59.775441 58.757942 59.547943)
  1 by 1 by 1 MPI processor grid
  reading atoms ...
  3017 atoms
  reading velocities ...
  3017 velocities
  scanning bonds ...
  4 = max bonds/atom
  scanning angles ...
  6 = max angles/atom
  reading bonds ...
  3060 bonds
  reading angles ...
  5803 angles
Finding 1-2 1-3 1-4 neighbors ...
  special bond factors lj:    0        0        0       
  special bond factors coul:  0        0        0       
     4 = max # of 1-2 neighbors
     7 = max # of 1-3 neighbors
    16 = max # of 1-4 neighbors
    20 = max # of special neighbors
  special bonds CPU = 0.003 seconds
  read_data CPU = 0.066 seconds

#output
timestep 1

group  O2 type 9
20 atoms in group O2
compute         msd O2 msd
fix             val O2 vector 100 c_msd[4]
# variable        fitslope equal slope(f_val)
thermo			100
thermo_style	custom step c_msd[4]
dump			1 O2 custom 100 MSD_link_win.lammpstrj type id xu yu zu # unwrapped coordinates
# nvt for 10 ns
fix			1 all nvt temp 300 300 100
run			10000000
Generated 171 of 171 mixed pair_coeff terms from geometric mixing rule
Last active /omp style is angle_style harmonic/omp
Neighbor list info ...
  update every 1 steps, delay 10 steps, check yes
  max neighbors/atom: 2000, page size: 100000
  master list distance cutoff = 12
  ghost atom cutoff = 12
  binsize = 6, bins = 5 5 5
  1 neighbor lists, perpetual/occasional/extra = 1 0 0
  (1) pair lj/cut/omp, perpetual
      attributes: half, newton on, omp
      pair build: half/bin/newton/omp
      stencil: half/bin/3d
      bin: standard
WARNING: Inconsistent image flags (src/domain.cpp:819)
Per MPI rank memory allocation (min/avg/max) = 29.65 | 29.65 | 29.65 Mbytes
   Step        c_msd[4]   
         0   0            
       100   0.24479187   
       200   0.66200604   
       300   1.1837485    
       400   1.7174219    
       500   2.0509085    
       600   2.2588687    
       700   2.5339453    
       800   2.5764144    
       900   2.6253572    
      1000   2.9063947    
      1100   3.2467659    
      1200   3.2104038    
      1300   2.6154074    
      1400   2.3153645    
      1500   2.5159123    
      1600   2.4845068    
      1700   2.3259562    
      1800   2.083219     
      1900   1.8709386    
      2000   1.8380353    
      2100   2.0144891    
      2200   2.263843     
      2300   2.5075883    
      2400   2.8760993    
      2500   2.7221748    
      2600   2.7559096    
      2700   3.1499195    
      2800   2.8338646    
      2900   3.0529524    
      3000   3.5183377    
      3100   3.3965505    
      3200   2.7896834    
      3300   2.6356588    
      3400   2.8329989    
      3500   2.6230155    
      3600   2.5272353    
      3700   2.3758691    
      3800   2.6918355    
      3900   3.376442     
      4000   4.3826688    
      4100   4.6787737    
      4200   4.625643     
      4300   4.5395812    
      4400   4.2295981    
      4500   4.0790583    
      4600   3.9420421    
      4700   3.841453     
      4800   4.0080624    
      4900   4.1999341    
      5000   4.7230289    
      5100   4.2211374    
      5200   4.0243619    
      5300   4.3151693    
      5400   4.3942285    
      5500   4.4834417    
      5600   4.7047483    
      5700   4.3443075    
      5800   3.5513404    
      5900   3.3923834    
      6000   3.4229358    
      6100   3.1329687    
      6200   3.2186593    
      6300   3.5475464    
      6400   3.5875083    
      6500   3.7401921    
      6600   3.7195685    
      6700   4.0148249    
      6800   4.4499011    
      6900   4.101063     
      7000   3.9111171    
      7100   4.4755909    
      7200   4.4896556    
      7300   4.5171323    
      7400   4.7047846    
      7500   5.0680793    
      7600   5.3409671    
      7700   5.7051262    
      7800   5.8114543    
      7900   5.9200406    
      8000   6.4772422    
      8100   7.3502825    
      8200   8.5542215    
      8300   9.6094013    
      8400   10.725134    
      8500   11.34511     
      8600   11.373401    
      8700   11.097835    
      8800   10.453466    
      8900   10.140079    
      9000   9.5146637    
      9100   8.6696633    
      9200   7.6633271    
      9300   7.3998941    
      9400   7.2952585    
      9500   7.0630623    
      9600   7.2181374    
      9700   7.3741857    
      9800   8.2334883    
      9900   9.2126908    
     10000   9.1182765    
     10100   8.8351645    
     10200   8.8418902    
     10300   8.817089     
     10400   9.1108042    
     10500   9.4640138    
     10600   10.169814    
     10700   10.147035    
     10800   10.125831    
     10900   10.037021    
     11000   9.9741728    
     11100   9.7216734    
     11200   9.4361334    
     11300   9.7205608    
     11400   10.892642    
     11500   11.084585    
     11600   10.60654     
     11700   10.513651    
     11800   10.788856    
     11900   10.371926    
     12000   10.513918    
     12100   11.141979    
     12200   11.337486    
     12300   11.59869     
     12400   11.962649    
     12500   11.743309    
     12600   12.20097     
     12700   12.002301    
     12800   12.029418    
     12900   11.670444    
     13000   11.876282    
     13100   13.041982    
     13200   13.769408    
     13300   13.369645    
     13400   13.108181    
     13500   12.785247    
     13600   12.451298    
     13700   12.524733    
     13800   12.778776    
     13900   12.564533    
     14000   13.284201    
     14100   13.78173     
     14200   13.868033    
     14300   14.273034    
     14400   15.3043      
     14500   15.25367     
     14600   14.447816    
     14700   14.460747    
     14800   14.655181    
     14900   14.797731    
     15000   14.152955    
     15100   13.302985    
     15200   13.11754     
     15300   13.209718    
     15400   12.463025    
     15500   12.129312    
     15600   12.305565    
     15700   12.968466    
     15800   12.830692    
     15900   12.44751     
     16000   12.655669    
     16100   12.796579    
     16200   13.452188    
     16300   14.370894    
     16400   15.050926    
     16500   14.91367     
     16600   15.328747    
     16700   15.790613    
     16800   15.953574    
     16900   15.731315    
     17000   15.597811    
     17100   15.633299    
     17200   15.507025    
     17300   15.011627    
     17400   14.766723    
     17500   13.925585    
     17600   12.885092    
     17700   12.05097     
     17800   12.18886     
     17900   12.481127    
     18000   13.002015    
     18100   13.726276    
     18200   13.872499    
     18300   13.414635    
     18400   13.768986    
     18500   14.2353      
     18600   14.422262    
     18700   13.755396    
     18800   13.650457    
     18900   13.623877    
     19000   13.277265    
     19100   12.838733    
     19200   12.578728    
     19300   12.950802    
     19400   13.204946    
     19500   13.143572    
     19600   13.326753    
     19700   12.87012     
     19800   12.64148     
     19900   12.919467    
     20000   13.323264    
     20100   14.003831    
     20200   15.034279    
     20300   15.777683    
     20400   14.726489    
     20500   14.857397    
     20600   15.328833    
     20700   15.051411    
     20800   15.079743    
     20900   14.665241    
     21000   14.062308    
     21100   13.445942    
     21200   12.930271    
     21300   12.94062     
     21400   13.302209    
     21500   13.566124    
     21600   14.114503    
     21700   14.395762    
     21800   14.720863    
     21900   14.553779    
     22000   13.707063    
     22100   13.175743    
     22200   13.176849    
     22300   13.203467    
     22400   13.074079    
     22500   12.705054    
     22600   12.602453    
     22700   12.225159    
     22800   11.921368    
     22900   11.474011    
     23000   11.81954     
     23100   11.822753    
     23200   11.685412    
     23300   11.924476    
     23400   12.734806    
     23500   13.745274    
     23600   14.17024     
     23700   14.297188    
     23800   14.350325    
     23900   13.990609    
     24000   13.535518    
     24100   13.733414    
     24200   13.624114    
     24300   13.241319    
     24400   13.148622    
     24500   12.322833    
     24600   11.715655    
     24700   11.479587    
     24800   10.977336    
     24900   10.870714    
     25000   10.875437    
     25100   10.512792    
     25200   10.201593    
     25300   10.899054    
     25400   11.753831    
     25500   12.751671    
     25600   13.391519    
     25700   13.454307    
     25800   13.669037    
     25900   13.232619    
     26000   12.900152    
     26100   11.926639    
     26200   11.527991    
     26300   11.347836    
     26400   10.141438    
     26500   9.7652617    
     26600   10.585256    
     26700   11.202104    
     26800   11.91814     
     26900   11.180947    
     27000   10.571631    
     27100   10.633115    
     27200   10.524474    
     27300   10.278788    
     27400   10.273777    
     27500   10.716043    
     27600   11.37463     
     27700   11.830533    
     27800   12.391422    
     27900   12.361419    
     28000   11.770556    
     28100   11.694962    
     28200   12.097257    
     28300   13.114581    
     28400   14.073465    
     28500   14.654633    
     28600   13.692959    
     28700   12.916147    
     28800   12.962614    
     28900   12.723925    
     29000   12.749042    
     29100   12.240881    
     29200   11.778353    
     29300   11.359711    
     29400   11.006278    
     29500   11.367919    
     29600   12.086093    
     29700   12.277925    
     29800   11.881919    
     29900   10.97676     
     30000   10.846872    
     30100   10.481093    
     30200   10.661923    
     30300   10.559818    
     30400   11.227081    
     30500   12.069371    
     30600   12.45428     
     30700   11.911518    
     30800   10.698272    
     30900   10.36321     
     31000   9.6191454    
     31100   9.1708494    
     31200   8.8033817    
     31300   8.341646     
     31400   7.6520881    
     31500   6.6867565    
     31600   6.3833331    
     31700   5.9564109    
     31800   5.7613656    
     31900   6.492783     
     32000   7.0634715    
     32100   7.5342124    
     32200   8.0121412    
     32300   8.264136     
     32400   8.0816713    
     32500   7.5539126    
     32600   7.650224     
     32700   7.6632033    
     32800   6.596712     
     32900   5.726292     
     33000   4.8352489    
     33100   4.343562     
     33200   3.8941242    
     33300   3.4585607    
     33400   4.2830704    
     33500   4.73254      
     33600   4.430066     
     33700   4.3801714    
     33800   3.9347907    
     33900   3.6675863    
     34000   3.9292006    
     34100   4.8608145    
     34200   5.7283636    
     34300   5.986416     
     34400   5.5265019    
     34500   5.0342669    
     34600   5.0475208    
     34700   5.3179995    
     34800   5.4020908    
     34900   5.5446402    
     35000   5.4087371    
     35100   5.5475596    
     35200   5.5379167    
     35300   5.6883468    
     35400   5.7851525    
     35500   5.526422     
     35600   4.8038825    
     35700   4.7584935    
     35800   4.9159839    
     35900   4.6190745    
     36000   4.465252     
     36100   4.5517564    
     36200   4.5541982    
     36300   4.9948379    
     36400   5.1887929    
     36500   5.3894908    
     36600   5.5398023    
     36700   5.7772697    
     36800   6.092533     
     36900   6.2740734    
     37000   6.4399111    
     37100   6.6769334    
     37200   6.9273412    
     37300   7.1399799    
     37400   7.2483931    
     37500   7.5078083    
     37600   7.0444125    
     37700   6.1254563    
     37800   5.6090702    
     37900   5.5123067    
     38000   5.5972742    
     38100   6.1283189    
     38200   6.4516505    
     38300   6.2423563    
     38400   6.3274076    
     38500   6.6749382    
     38600   6.7279398    
     38700   6.7672144    
     38800   6.8805669    
     38900   6.9218035    
     39000   6.7849057    
     39100   6.8842419    
     39200   7.3301801    
     39300   7.9606996    
     39400   8.6952445    
     39500   9.2207905    
     39600   9.273457     
     39700   9.8491411    
     39800   10.601989    
     39900   11.848528    
     40000   10.946804    
     40100   10.182885    
     40200   9.8504217    
     40300   9.8596968    
     40400   10.129512    
     40500   10.132118    
     40600   10.321132    
     40700   10.791534    
     40800   11.200313    
     40900   11.31846     
     41000   11.235851    
     41100   11.790417    
     41200   12.377851    
     41300   11.799461    
     41400   10.812048    
     41500   10.569179    
     41600   10.850324    
     41700   10.256651    
     41800   9.9577387    
     41900   9.0482494    
     42000   7.1090945    
     42100   6.1315064    
     42200   5.8748851    
     42300   6.1069775    
     42400   6.3789033    
     42500   6.7927063    
     42600   7.6082177    
     42700   8.3805357    
     42800   8.6157153    
     42900   8.6631581    
     43000   8.9982212    
     43100   9.0570853    
     43200   8.9120688    
     43300   8.9223555    
     43400   8.594456     
     43500   8.3272842    
     43600   8.0694873    
     43700   7.3267552    
     43800   6.2780058    
     43900   6.0022701    
     44000   6.2567392    
     44100   6.039386     
     44200   5.5067653    
     44300   5.9568813    
     44400   6.8147055    
     44500   7.4613311    
     44600   7.6607936    
     44700   6.9939216    
     44800   6.5715449    
     44900   7.2838157    
     45000   7.8394171    
     45100   7.1793409    
     45200   6.6708286    
     45300   6.5346378    
     45400   6.2264395    
     45500   5.8833697    
     45600   5.6080011    
     45700   6.1221385    
     45800   6.9953181    
     45900   7.9324646    
     46000   8.5683006    
     46100   8.9635251    
     46200   8.1394268    
     46300   7.3976758    
     46400   6.9158058    
     46500   6.3196471    
     46600   5.9354136    
     46700   5.8006294    
     46800   5.9752298    
     46900   6.2372229    
     47000   6.435897     
     47100   6.1719824    
     47200   5.7955251    
     47300   5.6638197    
     47400   5.3838033    
     47500   5.5880626    
     47600   5.8265142    
     47700   5.8931603    
     47800   6.4156646    
     47900   6.7934264    
     48000   7.1323873    
     48100   7.15471      
     48200   6.5815025    
     48300   5.6452484    
     48400   5.5579127    
     48500   5.4381112    
     48600   5.2347232    
     48700   4.7098083    
     48800   4.7319353    
     48900   4.9752605    
     49000   5.3875628    
     49100   5.4567834    
     49200   5.4011565    
     49300   5.3183883    
     49400   5.39187      
     49500   5.425819     
     49600   6.1970928    
     49700   6.9165194    
     49800   7.1194679    
     49900   7.1621785    
     50000   7.4502529    
     50100   7.2468671    
     50200   6.7090173    
     50300   6.3128576    
     50400   6.0314428    
     50500   6.3283694    
     50600   7.2425706    
     50700   8.1350165    
     50800   9.3630322    
     50900   10.482556    
     51000   11.18355     
     51100   12.024714    
     51200   12.479188    
     51300   12.070389    
     51400   10.885026    
     51500   10.123232    
     51600   9.8401343    
     51700   9.6472073    
     51800   9.1192984    
     51900   8.6883545    
     52000   8.6783484    
     52100   8.915935     
     52200   9.2993052    
     52300   9.861371     
     52400   10.268024    
     52500   10.253679    
     52600   10.057289    
     52700   9.5474821    
     52800   9.1178816    
     52900   9.4412672    
     53000   10.267066    
     53100   10.65633     
     53200   11.046555    
     53300   11.352721    
     53400   11.35002     
     53500   11.184148    
     53600   10.403654    
     53700   9.5663917    
     53800   8.9261266    
     53900   8.4921554    
     54000   8.3176161    
     54100   8.2892018    
     54200   7.9476229    
     54300   7.2494137    
     54400   6.5541576    
     54500   6.3550825    
     54600   6.9394472    
     54700   7.4897066    
     54800   7.8649164    
     54900   8.4370453    
     55000   9.4084734    
     55100   10.710228    
     55200   11.919679    
     55300   13.06201     
     55400   14.277372    
     55500   15.407178    
     55600   15.385594    
     55700   15.101795    
     55800   15.045836    
     55900   15.918772    
     56000   16.347941    
     56100   16.748582    
     56200   16.495187    
     56300   16.716122    
     56400   17.939226    
     56500   18.13594     
     56600   17.247898    
     56700   16.72973     
     56800   17.131631    
     56900   17.482277    
     57000   17.383514    
     57100   16.710069    
     57200   16.088971    
     57300   15.810552    
     57400   15.887177    
     57500   15.651433    
     57600   14.88202     
     57700   14.317338    
     57800   13.837843    
     57900   13.689359    
     58000   13.80385     
     58100   13.506989    
     58200   13.545679    
     58300   13.338842    
     58400   13.071228    
     58500   13.171403    
     58600   13.740248    
     58700   14.013473    
     58800   14.677796    
     58900   16.121038    
     59000   17.207223    
     59100   17.209577    
     59200   15.67607     
     59300   15.759843    
     59400   15.316856    
     59500   14.900224    
     59600   14.668358    
     59700   14.4003      
     59800   14.815915    
     59900   15.124331    
     60000   15.522345    
     60100   16.854349    
     60200   17.976098    
     60300   18.037047    
     60400   16.724485    
     60500   15.69622     
     60600   15.351804    
     60700   16.284746    
     60800   17.072649    
     60900   17.053564    
     61000   16.770753    
     61100   17.357821    
     61200   17.123215    
     61300   17.195365    
     61400   16.832762    
     61500   15.911839    
     61600   14.57695     
     61700   13.876824    
     61800   13.952088    
     61900   13.629664    
     62000   14.061911    
     62100   14.872642    
     62200   15.6843      
     62300   16.195356    
     62400   16.129063    
     62500   15.047941    
     62600   14.198963    
     62700   13.738094    
     62800   14.197024    
     62900   14.523905    
     63000   14.282603    
     63100   13.457968    
     63200   14.270629    
     63300   15.144434    
     63400   15.320353    
     63500   13.989363    
     63600   12.952013    
     63700   12.161136    
     63800   11.995816    
     63900   11.953696    
     64000   11.482405    
     64100   10.987298    
     64200   10.364468    
     64300   10.286432    
     64400   10.73217     
     64500   11.101716    
     64600   11.133518    
     64700   10.734052    
     64800   10.081571    
     64900   9.8480321    
     65000   9.7962716    
     65100   10.220546    
     65200   10.940561    
     65300   11.365809    
     65400   11.785328    
     65500   12.710039    
     65600   13.026624    
     65700   12.664987    
     65800   12.108131    
     65900   12.474671    
     66000   12.509841    
     66100   12.567421    
     66200   12.630119    
     66300   12.611432    
     66400   12.582475    
     66500   13.255196    
     66600   14.143412    
     66700   14.506877    
     66800   14.111355    
     66900   14.181136    
     67000   14.373793    
     67100   15.134575    
     67200   14.919049    
     67300   14.816959    
     67400   15.017288    
     67500   15.205955    
     67600   14.991511    
     67700   14.302815    
     67800   14.014255    
     67900   14.87807     
     68000   15.372187    
     68100   15.7263      
     68200   16.06439     
     68300   16.691017    
     68400   16.40989     
     68500   15.856459    
     68600   15.005883    
     68700   14.074197    
     68800   13.85313     
     68900   14.762186    
     69000   15.185221    
     69100   14.090767    
     69200   13.107442    
     69300   12.600903    
     69400   12.251446    
     69500   12.65837     
     69600   13.783062    
     69700   15.1671      
     69800   14.624259    
     69900   13.197194    
     70000   13.331695    
     70100   13.815247    
     70200   13.271524    
     70300   13.32381     
     70400   13.903797    
     70500   13.214003    
     70600   12.043192    
     70700   11.159452    
     70800   11.40982     
     70900   11.584151    
     71000   11.80168     
     71100   12.218097    
     71200   13.203132    
     71300   14.335527    
     71400   14.980372    
     71500   15.356931    
     71600   14.763227    
     71700   13.734404    
     71800   12.420627    
     71900   11.232606    
     72000   11.239693    
     72100   10.654845    
     72200   9.7588803    
     72300   9.2805789    
     72400   10.088304    
     72500   10.021067    
     72600   9.636433     
     72700   9.8389244    
     72800   10.567097    
     72900   10.941971    
     73000   10.697963    
     73100   11.158969    
     73200   12.073455    
     73300   12.478579    
     73400   12.725173    
     73500   12.995219    
     73600   13.172793    
     73700   12.892388    
     73800   12.400776    
     73900   12.274179    
     74000   11.741052    
     74100   11.473652    
     74200   11.575314    
     74300   11.647631    
     74400   11.874235    
     74500   12.849314    
     74600   13.782397    
     74700   14.189973    
     74800   13.771877    
     74900   12.9332      
     75000   13.229571    
     75100   14.029349    
     75200   13.933742    
     75300   13.46418     
     75400   13.697778    
     75500   14.302107    
     75600   14.372493    
     75700   14.678953    
     75800   16.128199    
     75900   16.622866    
     76000   16.172947    
     76100   15.837938    
     76200   15.66261     
     76300   15.797497    
     76400   16.026532    
     76500   16.552593    
     76600   16.563808    
     76700   16.082208    
     76800   15.733063    
     76900   15.451118    
     77000   15.154821    
     77100   15.262188    
     77200   15.913667    
     77300   15.9882      
     77400   15.707719    
     77500   15.422579    
     77600   14.863846    
     77700   14.337085    
     77800   13.650239    
     77900   13.472813    
     78000   14.463838    
     78100   14.61851     
     78200   14.734359    
     78300   15.086902    
     78400   15.047263    
     78500   15.905115    
     78600   17.253011    
     78700   17.988811    
     78800   18.084593    
     78900   18.35321     
     79000   17.845309    
     79100   16.38961     
     79200   14.82104     
     79300   14.532987    
     79400   14.842446    
     79500   14.812178    
     79600   13.824091    
     79700   12.908224    
     79800   12.857426    
     79900   12.448671    
     80000   12.035974    
     80100   12.338964    
     80200   13.130907    
     80300   13.739659    
     80400   14.379247    
     80500   15.370205    
     80600   14.937586    
     80700   14.46146     
     80800   13.675091    
     80900   12.826765    
     81000   12.910364    
     81100   14.399644    
     81200   15.081496    
     81300   14.72655     
     81400   13.599753    
     81500   13.279161    
     81600   13.088753    
     81700   13.006942    
     81800   13.469087    
     81900   13.549735    
     82000   13.036681    
     82100   12.748444    
     82200   12.734712    
     82300   12.951892    
     82400   11.903813    
     82500   11.197018    
     82600   11.813438    
     82700   11.570228    
     82800   12.098637    
     82900   12.983086    
     83000   12.944903    
     83100   12.703822    
     83200   12.139266    
     83300   11.679385    
     83400   11.711762    
     83500   11.799193    
     83600   11.645745    
     83700   11.563044    
     83800   10.558049    
     83900   9.2805232    
     84000   9.2553323    
     84100   10.009682    
     84200   10.7111      
     84300   10.5456      
     84400   10.35011     
     84500   10.273528    
     84600   9.9618385    
     84700   9.7771014    
     84800   9.6107068    
     84900   9.0328149    
     85000   8.8901974    
     85100   9.5917899    
     85200   10.481149    
     85300   11.729587    
     85400   13.398689    
     85500   14.127934    
     85600   13.364672    
     85700   13.409545    
     85800   14.041553    
     85900   14.005809    
     86000   13.55677     
     86100   13.335515    
     86200   12.886432    
     86300   12.363572    
     86400   11.878079    
     86500   11.878328    
     86600   12.028309    
     86700   12.365795    
     86800   12.971914    
     86900   12.340367    
     87000   12.390779    
     87100   12.160072    
     87200   12.068419    
     87300   11.980392    
     87400   11.745766    
     87500   11.416537    
     87600   11.805688    
     87700   12.240748    
     87800   13.429867    
     87900   14.313052    
     88000   14.709418    
     88100   14.972582    
     88200   15.117931    
     88300   14.345911    
     88400   13.716663    
     88500   13.640967    
     88600   13.870319    
     88700   13.220415    
     88800   11.924438    
     88900   10.673176    
     89000   10.556653    
     89100   11.819273    
     89200   12.917516    
     89300   13.167409    
     89400   13.368933    
     89500   13.305369    
     89600   12.6338      
     89700   13.073582    
     89800   14.023654    
     89900   14.650754    
     90000   15.556906    
     90100   15.781507    
     90200   15.151409    
     90300   14.224161    
     90400   13.949335    
     90500   14.58003     
     90600   15.140565    
     90700   15.323916    
     90800   15.020726    
     90900   14.35641     
     91000   14.645723    
     91100   15.05814     
     91200   14.213552    
     91300   13.643671    
     91400   13.695004    
     91500   14.500705    
     91600   15.396612    
     91700   14.675062    
     91800   14.176909    
     91900   14.429807    
     92000   13.92368     
     92100   13.868935    
     92200   13.827744    
     92300   13.78432     
     92400   13.649371    
     92500   13.197748    
     92600   13.445696    
     92700   14.200575    
     92800   13.986137    
     92900   12.677146    
     93000   11.694322    
     93100   11.745693    
     93200   11.958969    
     93300   12.468721    
     93400   12.620681    
     93500   13.599994    
     93600   14.659903    
     93700   14.700818    
     93800   14.602849    
     93900   13.760391    
     94000   12.554486    
     94100   12.319024    
     94200   11.711139    
     94300   11.67327     
     94400   12.601226    
     94500   13.559454    
     94600   13.942543    
     94700   13.873043    
     94800   14.446786    
     94900   15.260606    
     95000   15.901492    
     95100   16.2966      
     95200   16.543643    
     95300   16.888218    
     95400   16.811106    
     95500   17.234092    
     95600   18.1584      
     95700   19.390633    
     95800   20.453052    
     95900   20.702351    
     96000   21.618808    
     96100   22.587913    
     96200   22.308748    
     96300   21.503413    
     96400   21.209597    
     96500   21.775533    
     96600   23.962143    
     96700   26.027583    
     96800   25.746604    
     96900   24.570537    
     97000   24.267494    
     97100   24.409733    
     97200   24.30585     
     97300   23.712821    
     97400   23.220266    
     97500   22.814623    
     97600   22.093914    
     97700   21.961946    
     97800   20.94831     
     97900   19.336882    
     98000   19.354489    
     98100   19.582816    
     98200   19.994246    
     98300   19.050288    
     98400   19.917963    
     98500   22.277339    
     98600   23.996316    
     98700   24.988309    
     98800   25.615084    
     98900   25.91282     
     99000   25.139567    
     99100   23.803889    
     99200   22.64356     
     99300   22.216203    
     99400   22.756898    
     99500   22.79855     
     99600   21.746581    
     99700   20.582162    
     99800   19.404754    
     99900   18.815068    
    100000   18.739727    
    100100   18.752179    
    100200   19.090033    
    100300   19.349016    
    100400   18.961227    
    100500   18.896094    
    100600   18.64421     
    100700   18.822433    
    100800   19.535117    
    100900   20.577937    
    101000   21.107403    
    101100   21.055444    
    101200   21.175302    
    101300   21.682607    
    101400   21.46564     
    101500   21.001182    
    101600   21.176646    
    101700   22.094932    
    101800   22.47596     
    101900   21.717615    
    102000   20.793218    
    102100   21.143661    
    102200   22.068869    
    102300   22.81488     
    102400   23.187506    
    102500   22.352521    
    102600   22.0936      
    102700   22.320201    
    102800   23.090055    
    102900   23.72422     
    103000   24.217541    
    103100   24.676421    
    103200   25.136481    
    103300   25.367897    
    103400   23.935332    
    103500   22.770083    
    103600   21.244115    
    103700   20.573021    
    103800   20.351583    
    103900   19.887302    
    104000   18.880578    
    104100   17.832817    
    104200   17.693795    
    104300   17.529425    
    104400   18.038654    
    104500   18.397034    
    104600   19.021697    
    104700   19.635103    
    104800   19.514475    
    104900   18.79933     
    105000   18.847663    
    105100   18.863493    
    105200   18.74552     
    105300   19.070313    
    105400   19.336971    
    105500   19.05175     
    105600   19.552144    
    105700   21.028777    
    105800   22.018553    
    105900   24.031825    
    106000   25.429493    
    106100   25.807802    
    106200   26.079079    
    106300   24.844561    
    106400   23.356179    
    106500   22.121747    
    106600   22.307667    
    106700   21.687833    
    106800   21.414231    
    106900   21.625819    
    107000   21.471253    
    107100   21.481636    
    107200   21.350156    
    107300   21.06965     
    107400   20.216566    
    107500   19.473403    
    107600   18.461021    
    107700   17.628939    
    107800   18.563851    
    107900   19.501644    
    108000   19.568651    
    108100   19.020631    
    108200   18.212363    
    108300   17.696313    
    108400   16.84671     
    108500   16.419917    
    108600   17.264604    
    108700   17.608981    
    108800   18.114469    
    108900   18.484313    
    109000   17.822236    
    109100   16.972588    
    109200   15.848188    
    109300   15.993223    
    109400   16.440773    
    109500   15.8843      
    109600   15.770931    
    109700   15.548543    
    109800   15.690431    
    109900   15.980277    
    110000   16.730032    
    110100   18.159179    
    110200   19.815217    
    110300   21.533983    
    110400   23.108021    
    110500   23.131871    
    110600   21.982644    
    110700   21.444781    
    110800   21.883331    
    110900   22.545808    
    111000   21.839124    
    111100   21.839496    
    111200   21.128277    
    111300   19.745609    
    111400   18.618432    
    111500   17.381114    
    111600   16.793425    
    111700   17.106143    
    111800   17.048073    
    111900   16.901426    
    112000   17.203964    
    112100   17.999861    
    112200   18.341159    
    112300   17.626554    
    112400   16.38036     
    112500   16.136056    
    112600   16.418       
    112700   16.933965    
    112800   17.098374    
    112900   17.416422    
    113000   18.505923    
    113100   18.469145    
    113200   17.123685    
    113300   17.043836    
    113400   17.498936    
    113500   16.621269    
    113600   16.27028     
    113700   17.850271    
    113800   17.98768     
    113900   18.294864    
    114000   18.797372    
    114100   18.882749    
    114200   18.92067     
    114300   19.42081     
    114400   20.3581      
    114500   21.620103    
    114600   21.462173    
    114700   21.742155    
    114800   21.678984    
    114900   21.904757    
    115000   22.309335    
    115100   22.702861    
    115200   22.487323    
    115300   22.382769    
    115400   22.056013    
    115500   23.090677    
    115600   24.131928    
    115700   23.793351    
    115800   23.180693    
    115900   21.920563    
    116000   20.915927    
    116100   19.896267    
    116200   18.818764    
    116300   17.85508     
    116400   16.900889    
    116500   16.499443    
    116600   16.967886    
    116700   17.346597    
    116800   18.816333    
    116900   19.139239    
    117000   19.004794    
    117100   20.025038    
    117200   20.921003    
    117300   20.904056    
    117400   20.068721    
    117500   19.729985    
    117600   20.393801    
    117700   19.945256    
    117800   19.543222    
    117900   19.759476    
    118000   20.092029    
    118100   20.106669    
    118200   19.706306    
    118300   20.359337    
    118400   22.210253    
    118500   23.674297    
    118600   24.485762    
    118700   24.549402    
    118800   24.797227    
    118900   25.636661    
    119000   25.582365    
    119100   24.261866    
    119200   22.480959    
    119300   21.249392    
    119400   21.733028    
    119500   22.306024    
    119600   22.851943    
    119700   22.690566    
    119800   22.992122    
    119900   23.216015    
    120000   22.987365    
    120100   23.296813    
    120200   23.772936    
    120300   23.646998    
    120400   23.435436    
    120500   23.230054    
    120600   23.496149    
    120700   23.958752    
    120800   24.23297     
    120900   24.501109    
    121000   24.836326    
    121100   23.900397    
    121200   23.131809    
    121300   22.621037    
    121400   21.60827     
    121500   21.00405     
    121600   20.709981    
    121700   20.429316    
    121800   20.519029    
    121900   20.772729    
    122000   21.176331    
    122100   21.035911    
    122200   21.214924    
    122300   22.226231    
    122400   23.497352    
    122500   23.845106    
    122600   22.988215    
    122700   22.051089    
    122800   20.834163    
    122900   20.649602    
    123000   19.990892    
    123100   19.3841      
    123200   19.510092    
    123300   19.954083    
    123400   20.660759    
    123500   20.892218    
    123600   20.56285     
    123700   20.869805    
    123800   20.836573    
    123900   20.666958    
    124000   20.908924    
    124100   21.406043    
    124200   21.099485    
    124300   20.746654    
    124400   19.802872    
    124500   18.817393    
    124600   19.344422    
    124700   19.776596    
    124800   19.166931    
    124900   19.637181    
    125000   20.041746    
    125100   20.182872    
    125200   19.942196    
    125300   19.263591    
    125400   19.337193    
    125500   20.152082    
    125600   20.519644    
    125700   20.29182     
    125800   20.9052      
    125900   21.26446     
    126000   21.423556    
    126100   22.092727    
    126200   23.058506    
    126300   22.308256    
    126400   21.301836    
    126500   21.417785    
    126600   21.454183    
    126700   21.194863    
    126800   21.916192    
    126900   23.088696    
    127000   22.643706    
    127100   20.912166    
    127200   21.306318    
    127300   21.13379     
    127400   20.344437    
    127500   20.536206    
    127600   21.39345     
    127700   21.901993    
    127800   22.57121     
    127900   22.433251    
    128000   22.928006    
    128100   22.469525    
    128200   22.26697     
    128300   23.106533    
    128400   21.768944    
    128500   21.137846    
    128600   20.609405    
    128700   20.275356    
    128800   20.759166    
    128900   21.156577    
    129000   20.985521    
    129100   21.644278    
    129200   22.249909    
    129300   23.029138    
    129400   22.992841    
    129500   21.573261    
    129600   21.289938    
    129700   21.619472    
    129800   21.448644    
    129900   20.783439    
    130000   20.112099    
    130100   20.427364    
    130200   21.546132    
    130300   21.651156    
    130400   20.373391    
    130500   19.39344     
    130600   19.256124    
    130700   17.553727    
    130800   17.355779    
    130900   18.904988    
    131000   20.531909    
    131100   21.943823    
    131200   22.294688    
    131300   22.073552    
    131400   21.809735    
    131500   22.023638    
    131600   20.480542    
    131700   18.824905    
    131800   17.054255    
    131900   16.644665    
    132000   17.13416     
    132100   16.52223     
    132200   16.512259    
    132300   16.955177    
    132400   17.713828    
    132500   18.090168    
    132600   17.78215     
    132700   18.560368    
    132800   19.175036    
    132900   19.772715    
    133000   19.794899    
    133100   19.139767    
    133200   18.260304    
    133300   17.998459    
    133400   17.840484    
    133500   17.583493    
    133600   18.519751    
    133700   19.665892    
    133800   20.153873    
    133900   20.16106     
    134000   18.936406    
    134100   17.481967    
    134200   16.869831    
    134300   16.633892    
    134400   16.524061    
    134500   16.867405    
    134600   16.940195    
    134700   17.823537    
    134800   17.906339    
    134900   18.621439    
    135000   19.082088    
    135100   20.059039    
    135200   20.062173    
    135300   19.262794    
    135400   18.110997    
    135500   17.723325    
    135600   18.463678    
    135700   19.390915    
    135800   20.126393    
    135900   19.618363    
    136000   20.093623    
    136100   20.633234    
    136200   20.351451    
    136300   20.741014    
    136400   21.164731    
    136500   20.434131    
    136600   20.347945    
    136700   20.698796    
    136800   20.041213    
    136900   19.91818     
    137000   18.936889    
    137100   18.94458     
    137200   18.613148    
    137300   18.174649    
    137400   19.007674    
    137500   20.05799     
    137600   20.14738     
    137700   20.208626    
    137800   20.011967    
    137900   19.287483    
    138000   18.596455    
    138100   18.37574     
    138200   19.761781    
    138300   20.587226    
    138400   21.071474    
    138500   21.029755    
    138600   20.677264    
    138700   21.653186    
    138800   22.530879    
    138900   22.158425    
    139000   20.990183    
    139100   20.319204    
    139200   20.086728    
    139300   19.50805     
    139400   19.385402    
    139500   19.417838    
    139600   20.685733    
    139700   21.663908    
    139800   21.921574    
    139900   20.995665    
    140000   20.14171     
    140100   19.87598     
    140200   19.552779    
    140300   19.685733    
    140400   20.83381     
    140500   20.952286    
    140600   19.658549    
    140700   18.877393    
    140800   18.318499    
    140900   18.504176    
    141000   18.470028    
    141100   18.765692    
    141200   19.486186    
    141300   20.673714    
    141400   21.811196    
    141500   22.153181    
    141600   21.76464     
    141700   20.837318    
    141800   20.872424    
    141900   22.047861    
    142000   21.797307    
    142100   21.026026    
    142200   20.404833    
    142300   19.417173    
    142400   18.929723    
    142500   19.550018    
    142600   19.559933    
    142700   19.519773    
    142800   19.513481    
    142900   19.681506    
    143000   20.714858    
    143100   21.000815    
    143200   21.262424    
    143300   21.359034    
    143400   20.417957    
    143500   19.36227     
    143600   18.416442    
    143700   18.251351    
    143800   18.84946     
    143900   20.364549    
    144000   22.025619    
    144100   21.905176    
    144200   20.404375    
    144300   20.532087    
    144400   21.488422    
    144500   21.238567    
    144600   21.370604    
    144700   21.546481    
    144800   21.39528     
    144900   20.887979    
    145000   20.743878    
    145100   20.994781    
    145200   21.245956    
    145300   21.506117    
    145400   21.712017    
    145500   21.21767     
    145600   21.798889    
    145700   22.110385    
    145800   22.2537      
    145900   21.33793     
    146000   20.467348    
    146100   20.489394    
    146200   20.872566    
    146300   20.869579    
    146400   20.366856    
    146500   18.997132    
    146600   18.436125    
    146700   19.484872    
    146800   20.245501    
    146900   20.66787     
    147000   21.51185     
    147100   22.103702    
    147200   22.205611    
    147300   21.992145    
    147400   21.778137    
    147500   21.51199     
    147600   21.744867    
    147700   22.019167    
    147800   21.055364    
    147900   21.249294    
    148000   22.222672    
    148100   22.641633    
    148200   23.148174    
    148300   23.21115     
    148400   23.177475    
    148500   22.474856    
    148600   21.899       
    148700   23.260491    
    148800   25.080335    
    148900   25.938516    
    149000   25.864977    
    149100   26.962565    
    149200   27.65518     
    149300   27.195106    
    149400   26.800763    
    149500   26.722964    
    149600   26.507089    
    149700   26.749371    
    149800   26.70719     
    149900   26.939841    
    150000   26.897758    
    150100   26.449092    
    150200   26.363191    
    150300   27.706168    
    150400   27.866252    
    150500   25.806193    
    150600   25.580921    
    150700   26.760305    
    150800   27.427165    
    150900   27.376562    
    151000   26.775101    
    151100   26.29977     
    151200   27.360986    
    151300   27.723814    
    151400   28.169536    
    151500   27.311975    
    151600   25.721515    
    151700   24.476778    
    151800   25.020442    
    151900   26.05999     
    152000   25.722634    
    152100   23.909187    
    152200   23.390806    
    152300   22.690509    
    152400   21.737203    
    152500   21.365089    
    152600   21.331405    
    152700   20.62275     
    152800   20.403413    
    152900   21.067188    
    153000   20.313388    
    153100   19.269201    
    153200   18.538459    
    153300   18.411967    
    153400   17.868473    
    153500   17.7704      
    153600   17.197292    
    153700   17.776717    
    153800   18.428289    
    153900   17.824102    
    154000   18.007101    
    154100   18.477257    
    154200   17.832035    
    154300   17.09689     
    154400   17.348855    
    154500   17.944613    
    154600   18.891412    
    154700   19.92966     
    154800   20.116582    
    154900   20.337751    
    155000   20.422197    
    155100   20.372804    
    155200   19.559102    
    155300   19.117571    
    155400   18.98462     
    155500   18.67909     
    155600   19.101925    
    155700   19.011774    
    155800   19.133032    
    155900   18.811716    
    156000   18.272067    
    156100   17.84784     
    156200   17.025372    
    156300   18.641594    
    156400   19.026206    
    156500   18.736735    
    156600   17.831606    
    156700   18.758627    
    156800   20.636178    
    156900   20.844107    
    157000   20.05002     
    157100   19.265887    
    157200   18.921463    
    157300   18.827639    
    157400   18.45644     
    157500   18.84404     
    157600   18.840872    
    157700   19.002385    
    157800   20.072219    
    157900   20.246461    
    158000   19.859627    
    158100   20.176888    
    158200   20.658775    
    158300   20.765784    
    158400   21.348956    
    158500   20.795481    
    158600   19.955779    
    158700   20.447467    
    158800   21.639029    
    158900   23.128124    
    159000   23.614746    
    159100   23.521117    
    159200   23.730017    
    159300   23.057633    
    159400   22.237306    
    159500   21.936657    
    159600   22.14843     
    159700   22.298508    
    159800   21.369838    
    159900   20.748182    
    160000   19.88889     
    160100   18.230392    
    160200   18.816059    
    160300   19.825749    
    160400   18.982621    
    160500   18.442356    
    160600   18.422625    
    160700   18.664962    
    160800   18.501352    
    160900   18.57118     
    161000   18.267384    
    161100   19.639804    
    161200   21.532965    
    161300   21.948331    
    161400   21.83427     
    161500   21.883134    
    161600   21.73686     
    161700   21.96195     
    161800   21.238016    
    161900   19.706311    
    162000   19.316419    
    162100   20.143969    
    162200   20.471251    
    162300   19.840345    
    162400   19.932151    
    162500   21.092947    
    162600   21.318085    
    162700   19.724971    
    162800   18.568288    
    162900   18.462584    
    163000   18.778901    
    163100   18.492079    
    163200   17.638939    
    163300   18.116145    
    163400   18.170962    
    163500   18.68541     
    163600   19.670007    
    163700   18.721365    
    163800   19.000893    
    163900   20.019065    
    164000   20.553255    
    164100   21.126772    
    164200   22.373883    
    164300   23.106586    
    164400   22.707315    
    164500   22.149146    
    164600   21.78031     
    164700   20.903044    
    164800   20.208001    
    164900   19.875411    
    165000   18.763113    
    165100   17.659189    
    165200   17.644234    
    165300   16.576257    
    165400   15.034425    
    165500   14.469887    
    165600   15.023595    
    165700   15.770229    
    165800   16.235065    
    165900   16.841397    
    166000   17.22358     
    166100   17.787424    
    166200   17.985578    
    166300   18.629421    
    166400   18.7845      
    166500   18.256461    
    166600   18.814613    
    166700   19.518983    
    166800   19.693951    
    166900   20.526177    
    167000   20.423347    
    167100   19.796757    
    167200   19.786907    
    167300   20.626169    
    167400   21.153356    
    167500   20.92491     
    167600   20.782632    
    167700   21.658836    
    167800   22.026898    
    167900   21.380982    
    168000   21.299629    
    168100   21.516859    
    168200   21.375669    
    168300   20.885423    
    168400   20.195184    
    168500   19.915376    
    168600   19.926686    
    168700   19.679549    
    168800   19.575881    
    168900   19.607073    
    169000   18.399403    
    169100   17.70244     
    169200   17.848525    
    169300   18.359558    
    169400   18.345969    
    169500   19.133134    
    169600   19.032313    
    169700   18.455941    
    169800   17.968778    
    169900   17.382577    
    170000   17.724516    
    170100   18.062504    
    170200   18.438897    
    170300   18.389884    
    170400   18.108373    
    170500   17.162403    
    170600   17.080868    
    170700   17.802018    
    170800   16.980623    
    170900   17.276316    
    171000   18.6543      
    171100   19.660227    
    171200   19.790457    
    171300   19.443534    
    171400   19.569231    
    171500   19.654709    
    171600   18.745512    
    171700   17.278411    
    171800   15.802451    
    171900   15.166827    
    172000   14.396034    
    172100   14.014793    
    172200   15.321502    
    172300   17.204332    
    172400   18.101063    
    172500   18.646863    
    172600   18.94434     
    172700   18.841432    
    172800   18.750546    
    172900   18.955557    
    173000   19.447268    
    173100   19.703273    
    173200   19.526898    
    173300   20.004286    
    173400   20.502024    
    173500   20.17322     
    173600   20.979638    
    173700   19.653283    
    173800   18.452547    
    173900   18.671705    
    174000   18.617459    
    174100   17.408218    
    174200   16.733805    
    174300   17.116768    
    174400   16.673086    
    174500   16.180682    
    174600   16.432239    
    174700   18.47464     
    174800   19.259923    
    174900   18.773243    
    175000   18.224243    
    175100   18.01561     
    175200   17.549299    
    175300   16.334941    
    175400   16.398333    
    175500   16.9009      
    175600   17.995751    
    175700   19.064951    
    175800   18.513363    
    175900   17.329782    
    176000   17.505645    
    176100   17.746734    
    176200   18.10048     
    176300   18.367688    
    176400   18.219194    
    176500   18.346329    
    176600   19.198937    
    176700   19.858834    
    176800   19.080441    
    176900   18.08559     
    177000   17.365164    
    177100   16.656995    
    177200   16.206854    
    177300   16.470272    
    177400   17.39569     
    177500   17.526268    
    177600   17.347484    
    177700   16.769557    
    177800   16.047417    
    177900   15.798211    
    178000   16.002513    
    178100   16.369373    
    178200   16.943117    
    178300   17.375079    
    178400   18.06487     
    178500   18.823353    
    178600   19.624386    
    178700   20.45339     
    178800   20.648963    
    178900   20.223506    
    179000   19.410994    
    179100   18.425376    
    179200   18.008305    
    179300   18.416106    
    179400   18.830695    
    179500   19.380101    
    179600   18.934924    
    179700   18.696486    
    179800   19.020043    
    179900   19.757184    
    180000   20.681668    
    180100   22.08698     
    180200   22.465121    
    180300   22.245811    
    180400   22.23332     
    180500   22.00551     
    180600   21.744079    
    180700   22.040081    
    180800   21.841841    
    180900   21.359139    
    181000   20.587821    
    181100   19.594448    
    181200   18.726688    
    181300   17.377962    
    181400   17.270336    
    181500   17.440352    
    181600   17.833969    
    181700   17.396563    
    181800   17.088309    
    181900   17.322246    
    182000   17.156498    
    182100   16.555162    
    182200   16.712548    
    182300   17.516177    
    182400   18.880571    
    182500   20.115692    
    182600   22.032862    
    182700   23.055647    
    182800   23.87563     
    182900   24.12932     
    183000   24.784659    
    183100   25.690427    
    183200   26.008404    
    183300   25.076136    
    183400   23.984288    
    183500   24.393273    
    183600   24.844572    
    183700   24.482529    
    183800   23.36726     
    183900   22.139179    
    184000   21.109444    
    184100   21.171367    
    184200   21.405279    
    184300   21.58453     
    184400   22.361567    
    184500   24.196164    
    184600   25.999132    
    184700   27.408724    
    184800   26.668361    
    184900   25.624226    
    185000   25.756645    
    185100   26.792228    
    185200   27.875702    
    185300   27.582007    
    185400   26.818493    
    185500   28.09371     
    185600   28.844549    
    185700   26.954464    
    185800   25.31617     
    185900   24.10512     
    186000   22.799251    
    186100   22.478357    
    186200   22.477873    
    186300   22.3835      
    186400   21.956173    
    186500   20.83784     
    186600   19.673298    
    186700   19.100556    
    186800   18.731716    
    186900   18.450148    
    187000   17.755493    
    187100   18.151888    
    187200   19.375941    
    187300   19.731441    
    187400   19.377889    
    187500   19.700427    
    187600   20.634629    
    187700   20.914172    
    187800   21.056475    
    187900   21.396717    
    188000   22.047618    
    188100   22.533909    
    188200   22.187216    
    188300   22.221257    
    188400   23.096084    
    188500   23.653407    
    188600   22.634771    
    188700   20.845229    
    188800   19.656728    
    188900   19.096143    
    189000   19.04224     
    189100   20.083027    
    189200   20.745288    
    189300   20.931929    
    189400   21.687676    
    189500   22.249686    
    189600   22.334237    
    189700   21.898366    
    189800   21.098892    
    189900   19.506296    
    190000   18.829401    
    190100   18.947269    
    190200   19.693234    
    190300   20.176961    
    190400   19.796252    
    190500   19.556896    
    190600   19.504576    
    190700   20.051725    
    190800   21.3586      
    190900   22.922451    
    191000   23.787616    
    191100   24.125426    
    191200   23.711008    
    191300   22.692739    
    191400   21.236296    
    191500   20.802706    
    191600   19.683953    
    191700   18.621365    
    191800   17.319693    
    191900   17.148853    
    192000   18.226714    
    192100   19.306013    
    192200   20.786614    
    192300   22.128254    
    192400   22.251274    
    192500   22.440836    
    192600   22.550164    
    192700   21.863537    
    192800   20.737827    
    192900   19.870082    
    193000   20.459196    
    193100   20.987667    
    193200   21.721091    
    193300   22.542548    
    193400   23.611331    
    193500   24.058838    
    193600   24.274643    
    193700   25.124243    
    193800   26.260543    
    193900   26.108339    
    194000   24.75993     
    194100   23.604364    
    194200   22.357586    
    194300   20.770896    
    194400   19.391627    
    194500   18.885118    
    194600   18.206437    
    194700   17.592453    
    194800   17.77858     
    194900   18.404055    
    195000   19.502998    
    195100   20.072917    
    195200   20.941708    
    195300   21.315248    
    195400   21.056498    
    195500   21.178593    
    195600   20.922273    
    195700   20.523868    
    195800   19.574093    
    195900   18.5856      
    196000   18.272834    
    196100   18.488831    
    196200   19.152112    
    196300   20.532055    
    196400   20.965722    
    196500   19.684635    
    196600   17.85985     
    196700   16.540294    
    196800   16.208547    
    196900   16.347668    
    197000   16.513758    
    197100   17.302286    
    197200   18.693294    
    197300   19.245727    
    197400   19.844008    
    197500   20.391531    
    197600   20.713424    
    197700   20.005454    
    197800   19.403478    
    197900   20.036875    
    198000   20.534722    
    198100   20.727022    
    198200   21.380129    
    198300   21.811002    
    198400   22.041877    
    198500   22.883468    
    198600   23.71089     
    198700   23.856009    
    198800   23.160581    
    198900   21.751788    
    199000   21.486567    
    199100   22.193088    
    199200   22.173673    
    199300   22.038191    
    199400   21.788352    
    199500   21.596119    
    199600   22.169487    
    199700   22.369477    
    199800   22.544759    
    199900   22.269644    
    200000   21.907334    
    200100   21.653063    
    200200   21.34113     
    200300   20.692797    
    200400   20.166317    
    200500   20.179773    
    200600   20.374357    
    200700   19.635453    
    200800   19.66326     
    200900   19.562409    
    201000   19.960222    
    201100   20.042134    
    201200   19.288809    
    201300   19.963637    
    201400   20.172913    
    201500   20.279069    
    201600   20.782183    
    201700   20.865601    
    201800   21.262382    
    201900   21.368091    
    202000   21.272059    
    202100   21.045795    
    202200   21.280313    
    202300   21.34324     
    202400   20.596295    
    202500   20.471775    
    202600   20.836271    
    202700   20.736138    
    202800   20.250664    
    202900   20.939729    
    203000   21.8708      
    203100   22.061728    
    203200   22.365271    
    203300   21.04879     
    203400   20.230998    
    203500   20.626302    
    203600   21.502799    
    203700   21.316652    
    203800   21.683252    
    203900   21.703771    
    204000   21.286478    
    204100   20.823728    
    204200   20.540744    
    204300   19.619089    
    204400   20.045382    
    204500   20.195511    
    204600   20.646291    
    204700   21.034864    
    204800   21.251697    
    204900   20.857247    
    205000   20.494281    
    205100   20.511564    
    205200   21.447805    
    205300   22.759521    
    205400   22.830489    
    205500   22.819037    
    205600   23.336985    
    205700   23.522948    
    205800   23.763553    
    205900   23.161009    
    206000   22.384305    
    206100   22.259473    
    206200   22.984478    
    206300   23.714139    
    206400   23.511197    
    206500   22.647031    
    206600   21.504042    
    206700   21.334371    
    206800   20.86313     
    206900   20.882632    
    207000   21.246671    
    207100   21.472489    
    207200   21.460026    
    207300   20.865558    
    207400   20.378521    
    207500   20.733532    
    207600   22.315279    
    207700   23.375813    
    207800   23.117145    
    207900   22.761574    
    208000   22.590916    
    208100   22.260422    
    208200   22.476087    
    208300   23.411681    
    208400   23.632605    
    208500   23.170283    
    208600   23.073825    
    208700   23.111879    
    208800   24.140044    
