LAMMPS data file via write_data, version 23 Jun 2022, timestep = 10000000

3017 atoms
19 atom types
3060 bonds
17 bond types
5803 angles
31 angle types

30.180556859553505 59.775441140450276 xlo xhi
29.163057859553547 58.75794214045032 ylo yhi
29.953058859553508 59.54794314045028 zlo zhi

Masses

1 1.00794
2 1.00794
3 12.0107
4 12.0107
5 1.00794
6 1.00794
7 1.00794
8 1.00794
9 15.9994
10 15.9994
11 12.0107
12 12.0107
13 1.00794
14 15.9994
15 15.9994
16 12.0107
17 12.0107
18 1.00794
19 15.9994

Pair Coeffs # lj/cut/omp

1 0.038 2.44997
2 0.038 2.44997
3 0.039 3.87541
4 0.039 3.87541
5 0.038 2.44997
6 0.038 2.44997
7 0 0
8 0.038 2.44997
9 0.228 2.85978
10 0.228 2.85978
11 0.148 3.61705
12 0.039 3.87541
13 0.038 2.44997
14 0.228 2.85978
15 0.228 2.85978
16 0.148 3.61705
17 0.148 3.61705
18 0 0
19 0.228 2.85978

Bond Coeffs # harmonic/omp

1 340.618 1.105
2 340.618 1.105
3 322.716 1.526
4 340.618 1.105
5 340.618 1.105
6 340.618 1.105
7 384 1.42
8 540.634 0.96
9 833.72 1.208
10 283.092 1.52
11 340.618 1.105
12 615.322 1.23
13 322.716 1.526
14 340.618 1.105
15 384 1.42
16 540.634 0.96
17 384 1.42

Angle Coeffs # harmonic/omp

1 39.5 106.4
2 44.4 110
3 39.5 106.4
4 44.4 110
5 39.5 106.4
6 46.6 110.5
7 44.4 110
8 44.4 110
9 70 109.5
10 46.6 110.5
11 44.4 110
12 58.5 106
13 39.5 106.4
14 57 109.5
15 57 109.5
16 46.6 110.5
17 45 109.5
18 50 120
19 68 120
20 46.6 110.5
21 44.4 110
22 55 120
23 39.5 106.4
24 70 109.5
25 57 109.5
26 70 109.5
27 57 109.5
28 80 109.5
29 70 106
30 80 109.5
31 58.5 106

Atoms # full

819 2 1 0 32.75409148593096 31.56735689208407 33.72149610230414 0 0 0
813 2 5 0 33.46159309750061 33.92034557151738 34.5439534278032 0 0 0
818 2 4 0 34.62560932348124 31.223177445898557 34.4982812801847 0 0 0
817 2 3 0 33.7736154775443 31.986483730962355 33.53679658480133 0 0 0
814 2 15 0 32.47946450509619 33.890680392489124 32.719746934519264 0 0 0
811 2 4 0 33.65866799517336 33.56922871635655 33.53388240308143 0 0 0
810 2 3 0 35.007687337282555 34.1528582787868 32.970980782674246 0 0 0
820 2 5 0 35.68453882019139 31.4835669910753 34.37541641080378 0 0 0
816 2 8 0 33.84917458561854 31.602175128190993 32.512701797511376 0 0 0
809 2 8 0 35.57508641123983 33.32284865003563 32.566379224819656 0 0 0
812 2 1 0 34.879698516440556 34.842621762188486 32.10093427296358 0 0 0
2927 7 17 0 32.109045627515584 35.31424613975395 32.75323101402778 2 3 3
804 2 4 0 35.84257046332387 34.85396572271407 33.970717366882475 0 0 0
2950 9 12 0 31.416765148860154 30.862949393651135 30.995749673740768 2 1 0
806 2 5 0 35.717853678760726 34.2543175288761 34.87940375502629 0 0 0
1234 2 15 0 31.285218584980658 35.61282805966451 31.577882549425542 0 0 1
2924 7 12 0 31.356870247054584 35.58922299993679 34.023671903841674 2 3 3
826 2 1 0 33.16905695256012 32.00528403199873 35.99649156125274 0 0 0
824 2 3 0 34.17521051589123 31.46174188083405 35.95780918247898 0 0 0
2952 9 13 0 31.555580329080062 30.86354520418535 32.149143561576814 2 1 0
823 2 8 0 33.764062053761016 30.576766833101736 36.38244736459216 0 0 0
821 2 15 0 34.57100342992784 29.806532982909197 34.268657862716346 0 0 0
1226 2 5 0 33.06142034771805 33.06489843670121 30.416076213426656 0 0 1
1231 2 4 0 31.90506008147305 36.158691913868374 30.469004447226062 0 0 1
827 2 5 0 35.90652008214971 32.49815517067899 36.295876108064235 0 0 0
2933 7 13 0 32.976852747727634 35.93009824837558 32.66629780990915 2 3 3
2929 7 13 0 31.998521886984054 35.72583087359525 34.919818136365336 2 3 3
2953 9 13 0 32.44515119119709 30.95696301342665 30.618646664318263 2 1 0
2877 4 13 0 36.74066999998499 30.082856862416627 36.04175506248037 -2 2 2
2928 7 13 0 30.69312916156689 34.70826039287774 34.30573134491227 2 3 3
2886 4 13 0 36.39324694987599 29.74677950642313 33.47355325537853 -2 2 2
1227 2 15 0 30.982640869197137 33.28187344911661 30.02195716250233 0 0 1
2949 9 17 0 30.446257766632318 31.98426174241291 30.433550762801175 2 1 0
1208 2 8 0 36.86745238679691 32.40897422171766 30.424697005139528 0 0 1
2951 9 12 0 30.799411649365016 29.410585738256568 30.659106906779787 2 1 0
1232 2 1 0 33.799323120783 35.15508989605892 59.418713602259594 0 0 0
807 2 10 0 37.197906440077425 34.667046972489246 33.602976702483375 0 0 0
2874 4 17 0 35.801305183883166 29.165683250078104 34.27497225452537 -2 2 2
1233 2 5 0 31.117153051604213 36.34321995332205 59.336188293056125 0 0 0
1211 2 1 0 36.23759826117137 30.889086050450214 59.491321728189185 0 0 0
1207 2 7 0 39.85204035843789 31.189535840225524 30.59468316776804 0 0 1
2810 1 9 0 31.1926033573281 29.715023592675458 34.437644617243535 0 -1 6
2875 4 12 0 36.441284835806094 58.68895521936771 35.631508077534264 -2 1 2
825 2 4 0 35.16544395152662 32.05771802849362 36.940723720279145 0 0 0
1224 2 4 0 32.412263447081465 33.50673944230309 59.29825396784312 0 0 0
1230 2 3 0 32.71359190877109 35.051498320577686 59.27159270111732 0 0 0
2955 9 13 0 30.727052302408296 29.363144168643746 59.16063207261755 2 1 -1
808 2 7 0 37.75832149337976 35.30195295284269 34.072595088832806 0 0 0
1206 2 10 0 38.94775119348242 30.90556304932655 30.801002549358063 0 0 1
2838 1 13 0 41.43840892339844 32.580751585289654 34.06160374870953 -6 -4 -3
2834 1 12 0 41.71550996674054 33.007640885730275 33.09261414039606 -6 -4 -3
2839 1 13 0 40.91884412351794 32.59606505696299 32.47321424919388 -6 -4 -3
2837 1 17 0 41.62393044955927 34.543791202829446 33.26556724278209 -6 -4 -3
2843 1 13 0 40.73416551095095 34.86917744536 33.83380496333582 -6 -4 -3
919 2 15 0 41.59200804852992 35.187828866706404 31.949849755185056 0 0 0
2835 1 13 0 43.07361525096124 31.593147068742937 31.91943275765486 -6 -4 -3
772 2 15 0 42.862927926605536 34.99303998641742 33.97887389036905 0 0 0
2831 1 12 0 43.04965622436274 32.40395821907576 32.63957171142866 -6 -4 -3
2830 1 12 0 43.9367956889052 31.937039006316787 33.85716199065589 -6 -4 -3
2836 1 13 0 43.610680005572064 33.16847424821367 32.051445607413754 -6 -4 -3
770 2 1 0 41.41269576317512 34.29068675838698 35.908502521945486 0 0 0
768 2 3 0 41.732249454013946 35.35796417081276 36.11358747318755 0 0 0
750 2 5 0 41.98334329971049 31.47189027268108 36.00222611297807 0 0 0
2829 1 17 0 43.33028296478514 30.655212043821194 34.36512766095018 -6 -4 -3
748 2 4 0 42.75360380077154 30.857963931024358 36.58300284573998 0 0 0
2841 1 13 0 42.237309639278976 30.509678900398207 34.184523678740725 -6 -4 -3
751 2 15 0 43.73927458502636 30.41278529752941 35.71731966845178 0 0 0
916 2 4 0 40.30972657594193 35.554824484624824 31.47475703412807 0 0 0
918 2 5 0 39.55823500077749 35.57104972213859 32.25932641796998 0 0 0
769 2 4 0 42.57786777665292 35.95709190766703 34.988429701400534 0 0 0
771 2 5 0 43.58250240385941 36.14951344860693 35.402120749808155 0 0 0
2833 1 13 0 43.89521709210949 32.61126749892808 34.730991309257796 -6 -4 -3
2832 1 13 0 45.00414631313904 31.734064462456825 33.67418651480485 -6 -4 -3
767 2 8 0 40.7608222313905 35.91984907087821 36.114896139398866 0 0 0
760 2 8 0 43.84389594020329 34.1174153449129 36.770222902229285 0 0 0
2825 9 9 0 38.96160528310931 32.170949090909644 36.1403319970374 -3 0 4
924 2 1 0 39.77139965671242 33.49340769373537 30.827712253211345 0 0 0
2826 9 9 0 39.28479106341727 32.483589234856645 35.0445806607471 -3 0 4
2293 4 1 0 44.98113062889383 35.46995802236415 31.435753932087927 0 0 0
1203 2 4 0 38.33807128432378 31.075045607610058 59.129762204947944 0 0 0
743 2 5 0 40.78483207196879 29.7730112429682 35.52633473781934 0 0 0
730 2 15 0 43.89444587764705 29.595065952146104 33.52404954338448 0 0 0
747 2 3 0 42.03294995494389 29.69800950764768 37.344338621492106 0 0 0
2283 4 8 0 45.21368168513507 34.68365253523938 33.64849607090119 0 0 0
753 2 8 0 44.4726675408465 31.957322795943778 37.21584641950882 0 0 0
745 2 7 0 38.89934117532483 29.941403688657324 36.790720579483605 0 0 0
754 2 3 0 43.43579400945316 31.748844055498328 37.57193081513958 0 0 0
922 2 3 0 39.89825860781403 34.497336832064484 30.41315061002573 0 0 0
931 2 1 0 41.30085932463551 32.545494533735635 30.105872438678436 0 0 0
921 2 8 0 38.85310860908918 34.79715052392329 30.01549327340233 0 0 0
941 2 7 0 45.2863906814281 29.305787950630197 58.90041654169217 0 0 -1
2286 4 1 0 46.75372177680246 34.07575114761617 33.15840373199615 0 0 0
2280 4 5 0 47.67789316975452 35.570925998817884 35.18798627326801 0 0 0
2278 4 4 0 46.76639053597573 35.04610679459213 35.14557740625927 0 0 0
2232 4 15 0 48.641871640747674 30.334140695647182 33.33475494664162 0 0 0
2969 10 12 0 50.20295497683351 33.6104048459086 34.197495113296746 0 0 0
2974 10 13 0 49.36464390755983 33.385706954701675 33.5094944067723 0 0 0
2972 10 17 0 49.99197344172017 33.17216065720764 35.613779793367804 0 0 0
2274 4 15 0 49.261065743214324 34.08096987668394 36.48534671531002 0 0 0
2966 10 12 0 50.51927783965103 35.04444851619166 33.88751021972115 0 0 0
2225 4 15 0 49.47316376060434 31.847101669523678 35.628932403434774 0 0 0
2224 4 5 0 51.43612040679677 31.15995712351128 35.029069091993975 0 0 0
2222 4 4 0 50.53736889688088 30.875034391743302 35.65990823056087 0 0 0
2978 10 13 0 50.932468047278675 33.060506265021715 36.103926034029044 0 0 0
2896 5 13 0 49.19727649150314 32.44761958015378 31.432722114418098 -1 1 -1
2891 5 12 0 49.44724720010317 31.563868208945934 30.798459073086775 -1 1 -1
2895 5 13 0 50.420664530815685 31.24176710570262 31.182118989748915 -1 1 -1
2973 10 13 0 51.00548903429529 33.00888894898567 33.721947393252876 0 0 0
2277 4 3 0 46.962712922366286 33.65742633182942 35.86819907462283 0 0 0
2970 10 13 0 50.29724142997435 35.285322422100876 32.82816213489606 0 0 0
2892 5 13 0 47.401751244139 31.435286612263376 31.18568558628207 -1 1 -1
2890 5 12 0 48.17163027174042 30.741589114051614 30.966758149892197 -1 1 -1
2284 4 3 0 46.28007770609169 34.85896849946031 33.702013513393176 0 0 0
2971 10 13 0 49.86859397250595 35.65219014724091 34.50314529820719 0 0 0
2237 4 1 0 47.34966522116779 30.45225872509587 35.35395715153568 0 0 0
2285 4 4 0 46.63623504564429 36.06737751602323 32.846775560126474 0 0 0
2291 4 3 0 45.96495811807212 35.9870097822088 31.457238017047565 0 0 0
2279 4 1 0 47.19226848941378 32.79349878670598 35.22679441952632 0 0 0
2221 4 3 0 50.962255546951866 30.679911104699602 37.08986124336916 0 0 0
2295 4 10 0 47.75876822670982 34.400282601500464 30.958462122157997 0 0 0
2281 4 10 0 45.7958062971931 35.81032726162234 35.79571625809609 0 0 0
2235 4 3 0 47.39890216135346 29.359957300765245 35.210038488623375 0 0 0
2889 5 17 0 48.36410418843256 29.658270611600592 32.08404829424555 -1 1 -1
2271 4 4 0 48.0352293231506 33.61575114803939 36.921955760012395 0 0 0
2311 4 8 0 52.11952828936996 35.72889486117796 31.151849540072654 0 0 0
2965 10 12 0 51.961739000010894 35.23734926332348 34.27603359505058 0 0 0
2287 4 5 0 47.72580361061703 36.12591659234316 32.75272190133175 0 0 0
2296 4 7 0 47.37096891722768 33.531344500249716 31.00526575981016 0 0 0
1016 2 5 0 51.68486531634262 29.800693196870245 30.52066089075772 0 0 0
2312 4 3 0 52.176485072342075 35.89328272548438 30.030013563188724 0 0 0
2276 4 8 0 46.03220799423237 33.40980363535416 36.345664362651156 0 0 0
2304 4 8 0 49.519588983829216 36.07353653134553 30.731124598609764 0 0 0
2229 4 4 0 48.67408700105361 29.300688969198774 34.40080565473025 0 0 0
2228 4 3 0 50.05631885752064 29.519480246583523 35.09846153245876 0 0 0
2230 4 1 0 50.82475321948311 29.214596431511254 34.3686663930822 0 0 0
2273 4 5 0 48.221309298086375 32.588248199424264 37.251834001463706 0 0 0
2309 4 15 0 50.68599765351156 33.95313982092613 29.994970029879504 0 0 0
2305 4 3 0 49.711312355726726 36.12877581111427 59.26118846131031 0 0 -1
2282 4 7 0 46.01670650179566 36.72505903082601 35.812497239314155 0 0 0
1010 2 15 0 49.55444057270368 58.51151482059764 31.920840604019716 0 -1 0
2234 4 8 0 46.52570287030867 58.628959356929826 34.668048155146785 0 -1 0
1014 2 4 0 51.99484212267864 58.45902607389796 30.050197154382232 0 -1 0
2223 4 1 0 50.38760911198301 29.872289896394552 37.557084883194065 0 0 0
2893 5 13 0 47.81601080309844 30.247430023313093 30.076912820563997 -1 1 -1
940 2 10 0 44.811367654111805 30.037252327126982 59.36699142301533 0 0 -1
2196 4 5 0 59.346294449903034 33.52284257191248 36.3743955015761 0 0 0
2215 4 4 0 52.39237576641932 30.279479019224265 37.27830016697493 0 0 0
2809 1 9 0 31.671992501505255 58.224047291504924 34.71539025937967 0 -2 6
2967 10 13 0 52.42001327912991 34.46228766357064 34.89893580704498 0 0 0
2968 10 13 0 52.559770490323416 35.151774895844795 33.327940148706794 0 0 0
1025 2 7 0 53.19945369575562 57.87603705356425 32.77814686888211 0 -1 0
2922 7 13 0 59.452082658100984 36.35316718087793 35.83564145988542 1 3 3
1024 2 10 0 53.08421484125842 29.250262162696362 32.891254667900576 0 0 0
1038 2 15 0 59.30407680163897 32.30997377641412 31.626593789712672 0 0 0
2217 4 5 0 52.60686568035629 29.639728119171618 36.3794045332793 0 0 0
1050 2 1 0 54.646486092326406 34.16461733843664 33.72097786032011 0 0 0
1044 2 5 0 55.494990867826864 34.059148210669456 31.62496661220786 0 0 0
1042 2 4 0 56.22697864121549 34.61552325635536 32.183636432049475 0 0 0
1035 2 4 0 57.93385666321021 32.74949867473981 31.452951494809255 0 0 0
1041 2 3 0 57.65793948670209 34.134906321709856 32.03607296028923 0 0 0
1048 2 3 0 55.68649436069465 34.518244706122665 33.63343842208952 0 0 0
1047 2 8 0 56.28321062976057 33.67484292429013 34.049419295800234 0 0 0
1043 2 1 0 58.16854265964849 34.23775920984576 33.008484840016074 0 0 0
2991 11 13 0 53.910171584843944 35.68979042481384 31.830254751398883 4 4 1
1055 2 3 0 55.231254311047365 35.35130187850468 35.904202952702036 0 0 0
1052 2 15 0 57.37457191325769 35.93183590175964 34.698061794325625 0 0 0
1049 2 4 0 55.9095159483446 35.75985435405532 34.587577923158236 0 0 0
1045 2 15 0 56.0621548667206 35.985108142014646 31.768261147001056 0 0 0
1057 2 1 0 55.18338411188957 34.27191328676674 35.89643823935628 0 0 0
1034 2 3 0 57.12150251671331 31.633486285640064 32.165915389680286 0 0 0
1033 2 8 0 57.803969495036284 30.794620352439534 32.29270293115394 0 0 0
1036 2 1 0 56.771876308939106 31.848635964046906 33.17914941596094 0 0 0
1040 2 8 0 58.20587469514448 34.82415798001833 31.430746961462713 0 0 0
1028 2 4 0 55.94643897580089 31.195818799942074 31.312182744200708 0 0 0
2318 4 8 0 53.42751712259148 33.5792247892144 30.55220110662423 0 0 0
1056 2 4 0 53.889033815785844 36.04574421878023 36.36491468901033 0 0 0
1027 2 3 0 55.17042672726413 30.065577531561935 32.07570444097997 0 0 0
1021 2 4 0 53.71032311687135 29.77785768061782 31.72732033310584 0 0 0
1037 2 5 0 57.75494265026174 32.61083106787354 30.42618035805891 0 0 0
2979 11 17 0 54.668187410290265 36.34281200283498 31.333412355934353 4 4 1
1030 2 5 0 55.314666521509 32.0215620622148 31.101652950985308 0 0 0
1058 2 5 0 53.1243717854788 35.37217378897463 36.73652640361195 0 0 0
1054 2 8 0 55.94328203235592 35.579904239192054 36.65192991694558 0 0 0
1023 2 5 0 53.133808256758996 30.719309254589135 31.491434835858094 0 0 0
2203 4 5 0 57.066521163671155 32.65445400514811 35.83856020647939 0 0 0
1029 2 1 0 55.29671264274881 30.129715632377966 33.17994543851968 0 0 0
2210 4 5 0 54.74335961983575 30.165219053506497 36.42676286548854 0 0 0
2211 4 10 0 54.428005459812894 31.9289542489315 35.32258760850189 0 0 0
2212 4 7 0 55.00672161388887 31.512310141024336 34.712486784655745 0 0 0
2208 4 4 0 54.55727758778622 31.278306617616618 36.61224509463407 0 0 0
2956 9 13 0 59.290641524258014 29.498553184928507 30.8829191916433 1 1 0
2213 4 8 0 52.90955600778375 32.447182011971655 37.148051336797145 0 0 0
1031 2 10 0 56.33451088421598 30.652483681932264 30.076031640182592 0 0 0
2316 4 15 0 54.645812076805186 36.11739549958632 59.47964855783286 0 0 -1
2214 4 3 0 53.34490198913576 31.47254247782291 37.45446484760415 0 0 0
2201 4 4 0 57.136670574538506 31.953824768781633 36.681688199936715 0 0 0
1032 2 7 0 55.58714493229136 30.724050411973142 59.06649913464805 0 0 -1
803 2 3 0 35.34352294753713 36.27464449854305 34.21411303459322 0 0 0
805 2 1 0 34.94902895580073 36.251928941932775 35.20066914439698 0 0 0
802 2 8 0 34.48317509435953 36.591700150543765 33.601169102641315 0 0 0
2921 7 12 0 30.438699767177177 36.779909384565386 33.85888579485948 2 3 3
2925 7 13 0 31.078482695986338 37.62685795311493 33.554049977149944 2 3 3
1236 2 8 0 33.79744555974917 37.18797279453571 30.919437264564205 0 0 1
797 2 4 0 36.38013664364633 37.393118506542095 33.89878929809642 0 0 0
1237 2 3 0 32.688475969869565 37.5157388682172 30.737867912247907 0 0 1
3041 15 12 0 36.0160679460322 40.57359689811009 30.964644851635537 0 0 0
3049 15 13 0 35.240921587324195 38.83186707962238 31.95678805296698 0 0 0
3040 15 12 0 34.688645740343055 41.32876149374264 31.321472483370755 0 0 0
3044 15 12 0 36.05413673906378 39.05396812959219 31.215619821110746 0 0 0
799 2 5 0 35.93200827593791 38.42450129907307 33.881318373151835 0 0 0
3042 15 13 0 34.254421718385395 41.14818727523345 32.37164359171549 0 0 0
3043 15 13 0 34.961752818547026 42.40977078546292 31.3129712701305 0 0 0
1239 2 1 0 32.345167318500344 37.923365768821625 31.694796812745235 0 0 1
1241 2 15 0 32.68856040046629 40.04941227522 30.705250779264546 0 0 1
157 1 3 0 31.564714685954435 43.194070885325715 32.105282681702185 0 0 0
151 1 4 0 32.62349485771455 43.54526518857843 31.162590513100625 0 0 0
156 1 8 0 31.421274992469545 42.124663172271184 32.07304492246967 0 0 0
3045 15 13 0 36.76856186870299 40.993806374547034 31.59547650382403 0 0 0
873 2 3 0 35.47098457860306 43.30498789493853 36.476453986102086 0 0 0
800 2 15 0 36.87724362548811 37.13468656045364 32.56557170770738 0 0 0
3039 15 17 0 33.52428724160725 41.182086505089515 30.303382350355907 0 0 0
872 2 8 0 35.04508119798535 42.73284708146179 35.63036149431867 0 0 0
2828 10 9 0 32.669730996869035 40.12394430617295 37.77113875415473 1 1 3
2827 10 9 0 31.86376765273363 39.53575748528193 37.0690281519898 1 1 3
874 2 4 0 36.75992000088728 43.920362956270985 35.99177280136894 0 0 0
3048 15 13 0 35.87473995571043 38.52110256314265 30.32365274002282 0 0 0
154 1 15 0 32.62015442768246 42.42860196683363 30.167667223738302 0 0 0
159 1 1 0 30.65790541268933 43.567785426028514 31.69844284464477 0 0 0
3047 15 17 0 37.29076218624368 38.38491743774911 31.83669384170418 0 0 0
3046 15 13 0 36.30967385606595 40.781318507163824 59.48570070624212 0 0 -1
879 2 8 0 37.19734158319133 42.13833130571045 34.906443032913245 0 0 0
164 1 3 0 30.442780793044733 43.23050693285 34.338713901409996 0 0 0
2373 4 7 0 59.65466038410528 41.036329897359025 33.02904065410492 0 0 0
2372 4 10 0 59.58809075937633 40.18983206367976 32.609175629082976 0 0 0
161 1 10 0 32.78135452512202 42.58679417931544 34.059907373908494 0 0 0
875 2 1 0 35.7983223927243 42.51586456891288 37.1941161533235 0 0 0
1238 2 4 0 32.83835978396084 38.8560333479197 59.49443762726449 0 0 0
792 2 5 0 37.70479758293513 39.455362045820614 34.77263213405324 0 0 0
795 2 8 0 36.9932890389283 36.648282306500526 35.89581059474836 0 0 0
163 1 8 0 30.505010065831573 42.27091188515088 34.79150894123768 0 0 0
2856 2 13 0 36.593331719941524 43.912839800332776 33.39523599102194 -4 -1 0
162 1 7 0 32.66818698759886 42.46504219255867 34.98690468845149 0 0 0
880 2 3 0 37.789889110043674 42.94516830111864 35.39350883588502 0 0 0
790 2 4 0 37.689409492307256 38.67462227205891 35.62613967842896 0 0 0
882 2 1 0 38.24392402655639 42.515494938234966 36.261018945876934 0 0 0
3053 15 13 0 37.7800534013076 39.02859906450962 32.519745108857265 0 0 0
796 2 3 0 37.44068917818357 37.27105128406869 35.03683376763547 0 0 0
774 2 8 0 41.057183092979606 37.2319643909044 34.09706373597141 0 0 0
915 2 3 0 40.495298764934795 37.05855932856799 30.943244123767595 0 0 0
780 2 7 0 44.39373455740091 38.968492741525075 34.811980071459786 0 0 0
775 2 3 0 42.15158331714669 37.253638124932735 34.28819982220404 0 0 0
777 2 1 0 42.59050837785123 37.34217912845863 33.32103357412297 0 0 0
798 2 1 0 38.415373001216736 36.83344323220719 34.7532629435293 0 0 0
912 2 15 0 38.25260069197871 37.986246825026676 30.830029862735167 0 0 0
886 2 8 0 38.45517502312823 42.54352262469962 32.73479685472955 0 0 0
779 2 10 0 43.81111529480099 38.578711801616805 35.51786430694068 0 0 0
776 2 4 0 42.47112297398808 38.60058396088477 34.98451365107338 0 0 0
909 2 4 0 39.533148425751605 38.08325291689651 31.48449228473765 0 0 0
911 2 5 0 39.361382590368024 37.78910180450988 32.56631442414987 0 0 0
908 2 3 0 39.954727897858916 39.533691826181084 31.313357256021128 0 0 0
778 2 5 0 42.451093601656666 39.36515987338245 34.17056915979043 0 0 0
785 2 5 0 39.90960538448159 39.35753142312544 34.67698112036722 0 0 0
783 2 4 0 40.104661681867285 39.42233578349755 35.74026693856865 0 0 0
893 2 8 0 41.45408843862276 41.97870431948378 32.20224270814644 0 0 0
907 2 8 0 39.31766227344278 40.186788440697164 31.977189551460853 0 0 0
887 2 3 0 39.32938999455191 42.93406085574438 33.32479468806928 0 0 0
910 2 1 0 41.04355559584353 39.70676681111431 31.702145217354854 0 0 0
894 2 3 0 41.206784793682424 42.905933741329115 31.628571462358707 0 0 0
889 2 1 0 39.79816880969302 41.993540844574405 33.6476796173272 0 0 0
782 2 3 0 41.53229098074849 38.98327113759158 36.13811731943645 0 0 0
786 2 10 0 40.07961862662919 40.816333846124714 36.0573684680699 0 0 0
789 2 3 0 38.95936374733971 38.63586523555497 36.41970143225362 0 0 0
412 1 5 0 43.8135712937752 41.28664691943167 31.219694893265835 0 0 0
413 1 10 0 43.40727609585611 39.47855731456716 31.821608782348314 0 0 0
896 2 1 0 42.109930782057155 43.47597447405735 31.360159919197088 0 0 0
895 2 4 0 40.56900007832348 42.50794991758741 30.318000228852164 0 0 0
897 2 5 0 39.58375518492235 42.56952542875235 30.409009697637845 0 0 0
414 1 7 0 43.43033275467726 39.269810018208354 32.74478434358473 0 0 0
888 2 4 0 40.27867678792462 43.79894451095838 32.45063534172504 0 0 0
914 2 8 0 41.562485336942046 37.354526488247146 31.129322197940837 0 0 0
881 2 4 0 38.843664964937545 43.72499977690967 34.55497654327096 0 0 0
784 2 1 0 41.63599614790808 38.13343059839251 36.81269900889613 0 0 0
406 1 10 0 43.5915924810491 42.06299113388699 34.67733660860742 0 0 0
405 1 5 0 44.1687523010145 42.914592320845145 32.92762758015994 0 0 0
410 1 4 0 44.354829792500944 40.51891329551836 31.728348443109805 0 0 0
407 1 7 0 43.66745938326038 41.1844591653791 35.066831216541814 0 0 0
787 2 7 0 39.70240835954957 41.372960134481325 35.348430743430804 0 0 0
781 2 8 0 42.06199359511539 39.819662687784536 36.61874657892885 0 0 0
415 1 8 0 44.66512052018027 39.41925885645751 29.985135608105892 0 0 0
890 2 5 0 40.940654342595764 44.37816079646378 33.100309571158505 0 0 0
403 1 4 0 44.617021567356986 42.273314612173195 33.68796516661486 0 0 0
1888 3 7 0 39.7809874411976 40.811519316351685 38.450844399180156 0 0 0
917 2 1 0 40.442031295700325 37.07632085525511 59.41303662610165 0 0 -1
906 2 7 0 38.43477745694426 41.07033711449493 59.45728013574976 0 0 -1
469 1 15 0 51.27585260574738 36.62344477690348 36.02456521479141 0 0 0
2964 10 17 0 52.08029247957415 36.65983341979217 34.892963591613686 0 0 0
2289 4 7 0 45.57782282663773 36.94972268863297 34.237680599414226 0 0 0
408 1 8 0 44.39931298278754 40.21728926275655 33.829839999263456 0 0 0
2290 4 8 0 45.586772617917056 36.95413005274761 31.006816968618782 0 0 0
409 1 3 0 44.92511982312605 40.87038314996141 33.109430573327636 0 0 0
426 1 5 0 45.39118396205084 43.39475011023639 30.432727812474212 0 0 0
2297 4 8 0 47.40623313743566 37.20110574463768 59.45710086517395 0 0 -1
2288 4 10 0 46.127549344482624 37.24557371487133 33.44778779817514 0 0 0
416 1 3 0 45.28036286151987 39.975344492403536 30.779605736581335 0 0 0
418 1 1 0 45.85833690855943 39.15111385730162 31.21161565520227 0 0 0
411 1 1 0 46.02746426019689 40.64837832206949 33.147202899455884 0 0 0
464 1 8 0 49.562883053563766 37.808985307341445 34.63385666555496 0 0 0
457 1 8 0 48.645718113528986 39.548545998807036 33.58399750861469 0 0 0
455 1 15 0 50.84995930559342 39.98943307654824 32.67622674850048 0 0 0
458 1 3 0 48.98103711422108 40.4201160140476 34.15051921099092 0 0 0
452 1 4 0 50.159780862864004 40.958738987012275 33.407777660283315 0 0 0
460 1 1 0 48.11760286705131 41.09688357340309 34.16560181388217 0 0 0
459 1 4 0 49.35675199907065 39.952962882143844 35.55338003088923 0 0 0
465 1 3 0 49.48404869632041 38.36597446544567 35.58472188041051 0 0 0
461 1 5 0 50.274455453657154 40.52697250746717 35.81027686716067 0 0 0
450 1 8 0 48.555933726126135 41.60923385499079 32.06038376767625 0 0 0
454 1 5 0 50.876548606914376 41.436273299790486 34.041572284695086 0 0 0
451 1 3 0 49.506547191662605 42.00958576674612 32.49325879672721 0 0 0
453 1 1 0 49.326514763599704 42.82416173155992 33.255348821317924 0 0 0
445 1 4 0 50.467507818950686 42.567311048432565 31.511313569055805 0 0 0
447 1 5 0 51.01649858202542 43.35798568878578 31.99722062735331 0 0 0
467 1 1 0 48.551402738465484 37.93070582015112 36.097616351096356 0 0 0
448 1 15 0 51.37715934861977 41.607422994946866 31.00743440256102 0 0 0
466 1 4 0 50.78042086386474 37.94518574176712 36.36206167914659 0 0 0
462 1 15 0 48.30560011674822 40.34051079619769 36.48056066610036 0 0 0
468 1 5 0 51.65332443482446 38.68138688555937 36.25523322439887 0 0 0
419 1 5 0 46.5079205811834 41.682863665228744 30.89750981543733 0 0 0
401 1 8 0 46.28405089781635 42.34163138707422 35.03065712464193 0 0 0
402 1 3 0 45.81376943786906 43.000539087097586 34.29630804675806 0 0 0
404 1 1 0 46.557752323403655 43.170944649081235 33.475928692993776 0 0 0
2987 11 17 0 51.86523837167131 40.67192961797801 31.955778728784374 4 4 1
2976 10 13 0 51.87625111711696 37.54722640660178 34.29641170180805 0 0 0
444 1 3 0 49.61102704996177 43.06162001730965 30.34113475231923 0 0 0
417 1 4 0 46.22259539425634 40.97697785220662 30.131234181974513 0 0 0
3030 14 13 0 47.82325313483197 42.969097049435895 36.4572172828561 3 3 1
2314 4 1 0 51.93778663580109 36.92296035484516 59.45450466862347 0 0 -1
371 1 10 0 52.12194141412662 42.69404945978613 36.91438521199263 0 0 0
2307 4 1 0 49.92392912265984 37.16786614037649 59.03543075820003 0 0 -1
2988 11 13 0 51.97180404240236 39.07654332773446 30.620012434724334 4 4 1
369 1 1 0 52.76938053658837 44.08450818401325 34.13333160422811 0 0 0
3034 14 13 0 45.215360120202064 42.86475915168215 37.37312868062021 3 3 1
2926 7 13 0 59.25452255340549 36.557632563965086 33.17332029586522 1 3 3
1051 2 5 0 55.4826051894353 36.66695742788387 34.08356315774925 0 0 0
169 1 7 0 57.88760972570518 44.100972942699975 36.092665807399676 -1 0 0
372 1 7 0 52.86375915702074 42.58385594680742 37.54566486949215 0 0 0
2993 11 13 0 52.45082884164758 41.31679551964162 32.710766838193855 4 4 1
1059 2 15 0 53.4500359891687 36.779280875297644 35.22973609384809 0 0 0
2923 7 13 0 59.77542033755837 38.08149559133576 35.65127913303952 1 3 3
2370 4 1 0 59.13140766899332 41.37093280352359 30.8031878367771 0 0 0
2920 7 12 0 59.35010923388613 37.15882777110055 35.131855393866545 1 3 3
366 1 8 0 53.11679151737613 42.548914632404774 34.817882179657126 0 0 0
2919 7 17 0 57.797634184666485 37.251627882549734 35.0612078974308 1 3 3
2931 7 13 0 57.29603791635146 37.42258740915379 35.997647780390615 1 3 3
2986 11 13 0 52.666419128626046 37.68447699636971 32.164757477291765 4 4 1
2984 11 12 0 52.676834321576784 39.59362612473752 31.232108279152413 4 4 1
2377 4 1 0 57.417573166308905 41.4354391075323 33.876735908182404 0 0 0
2367 4 8 0 57.8710069041953 42.23568295793955 31.793070368394464 0 0 0
2374 4 8 0 56.235668065036 40.42185831310385 33.11129700015984 0 0 0
2378 4 5 0 58.356624739951684 39.66535623611315 34.99582577715711 0 0 0
2375 4 3 0 57.26015903039824 40.44569009268453 33.50056566403411 0 0 0
2379 4 15 0 57.30029334899735 38.1108633071822 34.113371567179904 0 0 0
2371 4 5 0 57.98587292082134 39.20150289499739 31.83179849415317 0 0 0
2985 11 13 0 53.55240318649343 38.90959649826168 33.149394111065185 4 4 1
2981 11 12 0 53.38875109795183 38.54426446220707 32.13530228867942 4 4 1
2980 11 12 0 54.66138261975079 37.93029758417197 31.443589746467534 4 4 1
2376 4 4 0 57.33749220927121 39.44777954105319 34.63464917200851 0 0 0
2382 4 3 0 56.257756884441896 39.78168908150917 35.62130919346031 0 0 0
2384 4 1 0 55.40856864079141 40.2814354281404 35.17031396298855 0 0 0
2369 4 4 0 58.18917723372466 40.15855985379197 32.271103986966644 0 0 0
2983 11 13 0 55.476116395529814 38.33154323020495 32.04264666817902 4 4 1
2368 4 3 0 58.111132895445806 41.26346433059391 31.252000174644166 0 0 0
2381 4 8 0 55.737650449141604 38.79754610988961 35.796750314833666 0 0 0
2989 11 13 0 53.31588697492271 40.144778112114835 30.551567018114 4 4 1
2364 4 5 0 56.511970965741384 39.978498592077315 30.499719304831494 0 0 0
2982 11 13 0 54.74099301012126 38.26347758741799 30.341428738562158 4 4 1
2385 4 5 0 57.00377881704862 41.4635264636459 36.82082792051582 0 0 0
2383 4 4 0 56.79813647078911 40.44953332614668 36.94004985024423 0 0 0
2391 4 1 0 54.608705785223904 40.452582553716596 37.60866864464554 0 0 0
2362 4 4 0 57.166736269746984 40.74611103468327 30.16814355199695 0 0 0
2365 4 10 0 56.32165904111094 41.78962231021744 59.24901541112966 0 0 -1
2366 4 7 0 55.909026160007315 41.27110826925192 58.54223697890544 0 0 -1
166 1 1 0 59.128711815089275 43.1143784943401 33.703522177386304 -1 0 0
365 1 7 0 55.06850952442563 43.36360323059931 36.90365546083414 0 0 0
2389 4 3 0 55.702069732608685 40.31883974118498 37.94436367168237 0 0 0
2388 4 8 0 55.75471803863734 39.32515604547333 38.47871382053884 0 0 0
2352 4 7 0 59.02006785820115 36.38653992711994 59.0482143571567 0 0 -1
153 1 5 0 33.59830255371802 43.682522876808626 31.698124411768244 0 0 0
158 1 4 0 31.76267594589489 43.49016069072186 33.620914394798405 0 0 0
877 2 15 0 36.393156685551396 45.03328890591108 35.10118029855194 0 0 0
871 2 7 0 32.861502484275825 45.06394379155722 36.50774336251621 0 0 0
876 2 5 0 37.248522478861645 44.41515870978503 36.92852774011975 0 0 0
870 2 10 0 33.74200072832408 44.89842563092437 36.072347237200496 0 0 0
167 1 5 0 31.06495656049201 44.32915838776456 36.01895333667529 0 0 0
160 1 5 0 32.15525228122995 44.534534080571405 33.67643907943407 0 0 0