LAMMPS data file via write_data, version 23 Jun 2022, timestep = 1205007

3491 atoms
22 atom types
3601 bonds
21 bond types
6480 angles
31 angle types

28.716669880139193 61.67233011986395 xlo xhi
28.479168880139184 61.43482911986394 ylo yhi
28.54067088013919 61.496331119863946 zlo zhi

Masses

1 1.00794
2 1.00794
3 12.0107
4 12.0107
5 1.00794
6 1.00794
7 1.00794
8 1.00794
9 1.00794
10 15.9994
11 15.9994
12 15.9994
13 28.085501
14 12.0107
15 12.0107
16 1.00794
17 15.9994
18 15.9994
19 12.0107
20 12.0107
21 1.00794
22 15.9994

Pair Coeffs # lj/cut/omp

1 0.038 2.44997
2 0.038 2.44997
3 0.039 3.87541
4 0.039 3.87541
5 0.038 2.44997
6 0.038 2.44997
7 0.038 2.44997
8 0.038 2.44997
9 0.038 2.44997
10 0.228 2.85978
11 0.228 2.85978
12 0.228 2.85978
13 0.04 4.05343
14 0.148 3.61705
15 0.039 3.87541
16 0.038 2.44997
17 0.228 2.85978
18 0.228 2.85978
19 0.148 3.61705
20 0.148 3.61705
21 0.038 2.44997
22 0.228 2.85978

Bond Coeffs # harmonic/omp

1 340.618 1.105
2 340.618 1.105
3 322.716 1.526
4 340.618 1.105
5 340.618 1.105
6 340.618 1.105
7 384 1.42 
8 540.634 0.96
9 540.634 0.96
10 222.4 1.382
11 540.634 0.96
12 392.8 1.6652
13 392.8 1.6652
14 283.092 1.52
15 340.618 1.105
16 615.322 1.23
17 322.716 1.526
18 340.618 1.105
19 273.2 1.425
20 540.634 0.96
21 384 1.42 

Angle Coeffs # harmonic/omp

1 39.5 106.4
2 44.4 110
3 39.5 106.4
4 44.4 110
5 39.5 106.4
6 46.6 110.5
7 44.4 110
8 44.4 110
9 70 109.5
10 46.6 110.5
11 44.4 110
12 58.5 106
13 33.3 113.4
14 33.3 113.4
15 33.3 113.4
16 33.3 113.4
17 39.5 106.4
18 57 109.5
19 57 109.5
20 42.3 113.1
21 42.3 113.1
22 42.3 113.1
23 31.1 149.8
24 46.6 110.5
25 45 109.5
26 50 120
27 68 120
28 46.6 110.5
29 44.4 110
30 55 120
31 39.5 106.4

Atoms

748 2 4 0 31.4241 34.0588 30.9271 0 0 0
754 2 3 0 30.4498 34.287 32.0553 0 0 0
756 2 1 0 29.4468 33.742 32.1205 0 0 0
41 1 6 0 31.9872 30.3701 32.3125 0 0 0
752 2 8 0 33.0825 33.0279 31.016 0 0 0
751 2 11 0 32.1464 32.8304 31.0729 0 0 0
39 1 4 0 31.8747 29.6537 33.1391 0 0 0
35 1 11 0 29.6374 31.5736 33.6402 0 0 0
36 1 8 0 29.2104 32.3276 34.0238 0 0 0
32 1 4 0 29.7574 30.4498 34.4275 0 0 0
753 2 9 0 30.9236 33.9106 33.0181 0 0 0
48 1 6 0 32.307 29.1013 30.5086 0 0 0
903 2 1 0 35.1963 32.4578 33.9143 0 0 0
899 2 8 0 34.0941 34.1596 33.5091 0 0 0
898 2 11 0 33.8433 34.538 34.3599 0 0 0
747 2 3 0 30.6212 34.1307 29.6784 0 0 0
743 2 6 0 30.1452 32.0423 30.141 0 0 0
741 2 4 0 30.2312 32.6899 29.2905 0 0 0
56 1 11 0 33.7089 30.2083 28.9405 0 0 0
52 1 3 0 34.4589 28.8323 30.6807 0 0 0
746 2 9 0 29.6563 34.6699 29.7738 0 0 0
740 2 3 0 28.8805 32.637 28.5679 0 0 0
38 1 3 0 30.4186 29.3869 33.5081 0 0 0
42 1 18 0 32.548 30.214 34.3209 0 0 0
37 1 9 0 29.7711 29.3074 32.5669 0 0 0
749 2 1 0 31.1117 34.7412 28.9802 0 0 0
53 1 4 0 34.6388 29.205 29.2223 0 0 0
54 1 1 0 34.7266 29.7216 31.2811 0 0 0
750 2 6 0 32.2672 34.772 30.9008 0 0 0
2113 4 11 0 35.014 34.513 30.2149 0 0 0
1461 3 8 0 30.6536 29.6041 28.6944 0 1 0
57 1 8 0 33.7714 30.9354 29.5725 0 0 0
1460 3 11 0 30.2043 28.8346 29.0941 0 1 0
2109 4 4 0 34.9829 35.0619 28.8244 0 0 0
900 2 9 0 36.1271 33.5066 34.9669 0 0 0
61 1 1 0 36.1855 30.5489 29.9884 0 0 0
1136 2 18 0 38.968 30.7023 31.0167 0 0 0
1133 2 4 0 39.2562 29.7162 32.0158 0 0 0
161 1 11 0 37.8506 34.43 32.8001 0 0 0
162 1 8 0 37.4697 33.812 33.449 0 0 0
1135 2 6 0 39.7239 30.2968 32.8962 0 0 0
154 1 18 0 40.3321 33.6452 33.7712 0 0 0
912 2 11 0 38.1527 31.7181 34.6515 0 0 0
913 2 8 0 38.0453 30.9734 34.1205 0 0 0
151 1 4 0 40.6168 34.9962 34.06 0 0 0
920 2 8 0 40.9382 31.3263 34.8188 0 0 0
59 1 3 0 36.0263 29.8447 29.1967 0 0 0
58 1 9 0 36.6903 29.0852 29.5293 0 0 0
1140 2 4 0 41.7512 29.389 31.8465 0 0 0
1142 2 6 0 41.8395 29.0892 32.9186 0 0 0
1138 2 9 0 40.3564 28.7468 30.3976 0 0 0
1139 2 3 0 40.3701 28.8091 31.4685 0 0 0
1131 2 9 0 37.1597 29.7653 32.5518 0 0 0
2877 5 20 0 41.5273 33.5072 29.3121 1 -1 1
1144 2 8 0 41.5206 31.1413 31.0343 0 0 0
2114 4 8 0 35.9149 34.6204 30.5756 0 0 0
1132 2 3 0 37.979 29.0203 32.3414 0 0 0
901 2 3 0 35.3412 32.7639 35.011 0 0 0
1124 2 9 0 36.4388 28.753 34.5576 0 0 0
68 1 1 0 37.9067 31.43 28.6744 0 0 0
1143 2 11 0 42.054 30.7776 31.7219 0 0 0
2874 5 15 0 42.0116 34.9396 29.5625 1 -1 1
146 1 6 0 42.7794 33.4836 32.7672 0 0 0
139 1 6 0 43.2749 31.567 34.8782 0 0 0
137 1 4 0 44.0421 32.3694 34.8337 0 0 0
140 1 11 0 44.6923 32.1958 33.5762 0 0 0
141 1 8 0 44.6695 31.2571 33.3928 0 0 0
117 1 1 0 47.4686 29.9935 32.1717 0 0 0
105 1 11 0 46.6747 33.5483 30.4641 0 0 0
104 1 6 0 46.2734 31.626 30.1773 0 0 0
102 1 4 0 47.0814 32.3329 29.8638 0 0 0
106 1 8 0 46.4868 33.2681 31.3796 0 0 0
143 1 3 0 43.4001 33.7495 34.8965 0 0 0
144 1 4 0 43.1253 34.3034 33.4712 0 0 0
131 1 1 0 46.4675 30.319 34.6833 0 0 0
123 1 4 0 48.4699 31.1767 34.4791 0 0 0
125 1 6 0 48.1686 31.7363 33.566 0 0 0
2879 5 16 0 43.0907 35.0176 29.7838 1 -1 1
1149 2 6 0 44.2105 28.814 32.9496 0 0 0
1151 2 8 0 45.382 29.1883 31.3182 0 0 0
108 1 3 0 48.3771 31.9492 30.4378 0 0 0
107 1 9 0 48.4439 32.2065 31.5408 0 0 0
111 1 6 0 47.8877 29.9596 29.6196 0 0 0
115 1 3 0 48.4334 29.8221 31.7231 0 0 0
114 1 9 0 48.4319 28.7565 31.6201 0 0 0
148 1 8 0 44.4319 34.6958 32.0163 0 0 0
147 1 11 0 44.3363 34.9385 32.957 0 0 0
1145 2 9 0 43.2314 28.9797 30.1753 0 0 0
1146 2 3 0 42.8547 28.5339 31.2143 0 0 0
132 1 6 0 46.7217 32.9384 35.0403 0 0 0
2883 5 16 0 42.1535 32.7343 28.8759 1 -1 1
124 1 1 0 48.6146 28.9405 34.2041 0 0 0
2181 4 1 0 48.6256 34.6134 32.7626 0 0 0
110 1 1 0 49.2378 32.483 30.0479 0 0 0
122 1 3 0 49.1635 29.8852 34.0487 0 0 0
109 1 4 0 48.5529 30.435 30.3241 0 0 0
118 1 6 0 50.1639 30.9816 32.571 0 0 0
121 1 9 0 50.0614 29.7624 34.7294 0 0 0
116 1 4 0 49.6252 29.9877 32.5722 0 0 0
119 1 18 0 50.5546 28.9292 32.2501 0 0 0
2901 7 15 0 54.0383 29.3645 29.5633 0 1 1
2900 7 15 0 53.5066 30.4207 30.4738 0 1 1
112 1 18 0 49.8716 30.2356 29.8575 0 0 0
2899 7 20 0 53.6447 31.8463 29.7983 0 1 1
2906 7 16 0 54.3833 29.8835 28.6338 0 1 1
2911 7 16 0 53.0574 32.0297 28.8055 0 1 1
2202 4 1 0 52.8509 33.4019 35.0059 0 0 0
2905 7 16 0 54.9233 28.8293 29.9872 0 1 1
2902 7 16 0 52.4101 30.2428 30.7008 0 1 1
2195 4 1 0 52.8206 34.2634 32.7079 0 0 0
2185 4 9 0 51.2517 34.9025 30.916 0 0 0
2903 7 16 0 54.1346 30.294 31.3703 0 1 1
2188 4 1 0 50.7618 34.5189 32.6337 0 0 0
127 1 8 0 50.1299 32.1867 34.4803 0 0 0
126 1 11 0 49.4274 32.0124 35.1154 0 0 0
31 1 3 0 61.326 29.9124 34.7679 -1 0 0
736 2 6 0 60.6439 32.8591 30.436 -1 0 0
30 1 9 0 60.6704 30.011 33.9238 -1 0 0
730 2 11 0 60.6027 29.1321 31.0156 -1 0 0
724 2 8 0 56.5514 30.5395 32.7797 -1 0 0
738 2 8 0 58.9593 33.4424 29.3521 -1 0 0
737 2 11 0 59.5032 32.8846 28.7168 -1 0 0
734 2 4 0 60.608 32.3932 29.4469 -1 0 0
733 2 3 0 60.4335 30.8781 29.4968 -1 0 0
2 1 3 0 57.4383 33.9181 32.2789 -1 0 0
4 1 1 0 58.4371 33.5304 31.9466 -1 0 0
20 1 6 0 59.0793 31.5688 34.2317 -1 0 0
729 2 6 0 60.169 30.9886 31.6357 -1 0 0
10 1 3 0 57.4107 34.6538 34.7891 -1 0 0
13 1 6 0 59.286 33.7705 34.2461 -1 0 0
5 1 2 0 56.7255 33.1443 32.5054 -1 0 0
727 2 4 0 59.9015 30.3193 30.8593 -1 0 0
723 2 11 0 56.602 29.8457 32.0563 -1 0 0
9 1 9 0 56.5711 34.1496 35.1441 -1 0 0
732 2 9 0 59.7888 30.6728 28.6661 -1 0 0
735 2 1 0 61.4001 30.3867 29.2082 -1 0 0
725 2 9 0 57.9394 30.9977 30.682 -1 0 0
726 2 3 0 58.46 30.0302 30.7874 -1 0 0
720 2 4 0 57.8708 29.2516 31.9286 -1 0 0
722 2 6 0 58.4513 29.4468 32.8704 -1 0 0
1 1 9 0 57.0654 34.2987 31.3136 -1 0 0
731 2 8 0 60.3442 28.6732 30.2054 -1 0 0
728 2 1 0 58.2796 29.5168 29.798 -1 0 0
33 1 1 0 61.2911 28.8255 35.0713 -1 0 0
21 1 18 0 57.1651 31.0017 34.9311 -1 0 0
755 2 4 0 30.052 35.7738 32.3075 0 0 0
757 2 6 0 29.719 36.3142 31.3309 0 0 0
764 2 6 0 30.6221 38.2785 31.7077 0 0 0
761 2 3 0 31.1824 36.6326 32.8506 0 0 0
763 2 1 0 31.1336 36.7189 33.996 0 0 0
766 2 8 0 32.4323 38.074 30.7147 0 0 0
760 2 9 0 32.0481 36.0217 32.8352 0 0 0
762 2 4 0 31.4244 37.9709 32.3561 0 0 0
768 2 3 0 31.5763 38.893 33.5614 0 0 0
769 2 4 0 30.3549 39.4949 34.2486 0 0 0
767 2 9 0 32.1064 39.7523 33.099 0 0 0
770 2 1 0 32.2982 38.4576 34.1731 0 0 0
765 2 11 0 32.6198 38.0585 31.6365 0 0 0
2124 4 4 0 34.8183 39.7467 29.1587 0 0 0
177 1 9 0 34.5834 41.045 33.1999 0 0 0
3271 1 13 0 29.0575 40.933 30.1003 1 0 1
771 2 6 0 30.6753 40.5155 34.5304 0 0 0
3237 1 12 0 30.3669 40.4705 29.2018 1 0 1
2128 4 8 0 33.0119 39.9831 29.6727 0 0 0
2127 4 11 0 33.6809 40.6039 29.4827 0 0 0
772 2 18 0 29.2648 39.5875 33.355 0 0 0
170 1 9 0 34.9237 38.1419 33.1814 0 0 0
169 1 8 0 35.1817 36.6974 35.112 0 0 0
178 1 3 0 35.204 41.0002 34.1819 0 0 0
2126 4 6 0 35.1061 39.1751 30.0433 0 0 0
758 2 18 0 28.9825 35.81 33.2463 0 0 0
2115 4 9 0 34.1389 36.7004 29.9033 0 0 0
3491 1 5 0 30.2666 39.6833 28.7031 1 0 1
2116 4 3 0 34.3642 36.441 28.7946 0 0 0
153 1 6 0 40.5328 35.1983 35.1489 0 0 0
160 1 6 0 38.1153 35.2813 34.5674 0 0 0
158 1 4 0 38.225 35.5784 33.5359 0 0 0
156 1 9 0 39.7142 35.6363 32.1045 0 0 0
2878 5 16 0 41.4817 35.3292 30.5064 1 -1 1
2119 4 6 0 36.1367 37.6192 28.5576 0 0 0
172 1 4 0 35.3465 39.5824 34.8053 0 0 0
163 1 9 0 36.436 36.3596 32.454 0 0 0
2130 4 3 0 36.0478 40.4778 28.7307 0 0 0
180 1 1 0 36.1422 41.3841 33.9344 0 0 0
171 1 3 0 35.7872 38.543 33.8031 0 0 0
157 1 3 0 39.6679 35.841 33.2066 0 0 0
159 1 1 0 39.8867 36.8928 33.4056 0 0 0
164 1 3 0 37.2424 36.698 33.0978 0 0 0
173 1 1 0 36.4116 39.2426 33.2308 0 0 0
165 1 4 0 36.6562 37.449 34.3515 0 0 0
167 1 6 0 37.4579 37.9736 34.8141 0 0 0
166 1 1 0 37.6939 37.4424 32.4347 0 0 0
2148 4 18 0 41.1192 38.8905 31.205 0 0 0
2145 4 4 0 41.046 39.8938 32.1429 0 0 0
2147 4 6 0 41.1769 39.4995 33.1588 0 0 0
2137 4 3 0 37.5966 40.5942 30.7523 0 0 0
2139 4 1 0 37.2216 40.9768 31.7672 0 0 0
2143 4 9 0 38.8448 39.8727 32.5256 0 0 0
2144 4 3 0 39.6485 40.5265 32.0467 0 0 0
2141 4 18 0 39.7703 40.4967 29.5333 0 0 0
2138 4 4 0 39.0736 41.0073 30.6469 0 0 0
2131 4 4 0 36.5972 41.3898 29.8675 0 0 0
2146 4 1 0 39.692 41.4449 32.7048 0 0 0
2112 4 6 0 35.9772 35.0992 61.4398 0 0 -1
2136 4 9 0 37.2936 39.5588 30.5325 0 0 0
2872 5 16 0 40.0674 36.8279 29.574 1 -1 1
2151 4 3 0 42.1372 40.9395 32.1225 0 0 0
2154 4 6 0 42.4674 41.1611 34.3354 0 0 0
149 1 9 0 42.112 35.8997 32.6663 0 0 0
150 1 3 0 42.0169 35.3657 33.6285 0 0 0
152 1 1 0 42.3244 36.136 34.3106 0 0 0
2152 4 4 0 42.9872 41.1484 33.3423 0 0 0
2153 4 1 0 42.8503 40.6981 31.3393 0 0 0
2157 4 9 0 44.4751 40.074 32.2955 0 0 0
2158 4 3 0 43.9831 40.0409 33.3198 0 0 0
2169 4 11 0 45.6247 37.4837 32.6619 0 0 0
2166 4 4 0 46.4866 37.8583 33.774 0 0 0
2172 4 3 0 47.0313 36.6132 34.3521 0 0 0
2170 4 8 0 45.7918 38.1091 31.9749 0 0 0
2171 4 9 0 46.3973 35.7694 33.9058 0 0 0
2093 3 3 0 45.1627 38.9734 29.3203 0 0 0
2092 3 9 0 44.6684 38.8314 30.2778 0 0 0
2160 4 1 0 43.5522 39.0023 33.3282 0 0 0
2095 3 1 0 46.0661 39.532 29.5638 0 0 0
2161 4 6 0 45.9756 40.6263 33.9283 0 0 0
2098 3 8 0 45.557 35.7349 29.0689 0 0 0
2097 3 11 0 45.4871 36.6118 29.493 0 0 0
2178 4 9 0 47.794 35.8652 32.0505 0 0 0
2164 4 9 0 44.6696 38.0896 34.7815 0 0 0
2090 3 11 0 42.9156 39.6572 28.7167 0 0 0
2094 3 4 0 45.4378 37.6593 28.5748 0 0 0
2087 3 4 0 44.3079 39.9687 28.5741 0 0 0
2159 4 4 0 45.1524 40.0255 34.2858 0 0 0
2085 3 9 0 44.6841 41.3417 30.2121 0 0 0
2168 4 6 0 47.3714 38.4919 33.485 0 0 0
2165 4 3 0 45.5995 38.6773 34.6925 0 0 0
2086 3 3 0 44.624 41.3542 29.1252 0 0 0
2173 4 4 0 48.5205 36.4939 33.9873 0 0 0
2179 4 3 0 48.6503 35.7412 32.6636 0 0 0
2175 4 6 0 48.9702 37.5053 33.968 0 0 0
2316 4 11 0 48.6018 40.2813 34.0324 0 0 0
2317 4 8 0 49.1971 39.7216 33.4709 0 0 0
2183 4 11 0 49.384 36.297 30.4052 0 0 0
2184 4 8 0 48.7679 35.6065 30.1494 0 0 0
2192 4 9 0 54.1458 35.4113 32.776 0 0 0
2193 4 3 0 53.0707 35.2093 33.1002 0 0 0
2194 4 4 0 52.9396 35.4305 34.5891 0 0 0
2191 4 8 0 52.6779 36.1448 30.5215 0 0 0
2180 4 4 0 49.7963 36.2739 31.7911 0 0 0
2182 4 6 0 50.0841 37.3034 32.0694 0 0 0
2186 4 3 0 51.0052 35.3394 31.9137 0 0 0
2190 4 11 0 52.9528 36.7083 31.1797 0 0 0
2187 4 4 0 52.2405 36.2108 32.3085 0 0 0
2189 4 6 0 51.9714 37.0543 32.8425 0 0 0
3325 1 13 0 54.478 40.4757 29.5975 0 0 1
3265 1 12 0 50.2311 39.5087 29.4813 0 0 1
3295 1 12 0 53.606 40.3848 30.957 0 0 1
3495 1 5 0 49.5411 38.8556 29.4487 0 0 1
2323 4 11 0 50.9878 41.2794 32.7044 0 0 0
2330 4 18 0 54.8344 39.5821 33.9269 0 0 0
2320 4 4 0 51.5908 41.5383 33.9355 0 0 0
3500 1 5 0 53.2698 39.5567 31.2392 0 0 1
3481 1 5 0 54.4224 35.48 29.1759 0 0 1
2329 4 6 0 54.226 41.4325 33.1898 0 0 0
2319 4 3 0 50.5568 41.5737 35.0802 0 0 0
2327 4 4 0 54.0775 40.7486 34.0959 0 0 0
2326 4 3 0 52.5827 40.4539 34.3131 0 0 0
2176 4 11 0 49.2437 35.7325 35.0364 0 0 0
2197 4 18 0 53.7593 36.6221 34.9103 0 0 0
2196 4 6 0 51.877 35.6838 34.6392 0 0 0
2325 4 9 0 52.4121 39.5732 33.6817 0 0 0
3 1 4 0 57.4241 35.0913 33.2909 -1 0 0
7 1 11 0 58.4971 36.0278 33.1214 -1 0 0
3480 1 5 0 57.9158 36.1984 30.3425 0 0 1
3174 1 12 0 58.055 35.6136 29.6156 0 0 1
8 1 8 0 58.2925 36.757 33.7593 -1 0 0
6 1 6 0 56.5168 35.6578 33.0614 -1 0 0
3177 1 12 0 55.264 35.3045 29.6136 0 0 1
3276 1 12 0 61.3048 39.4966 30.5699 0 0 1
3499 1 5 0 55.8705 37.5013 31.0868 0 0 1
3292 1 12 0 55.9926 39.7244 29.7906 0 0 1
3497 1 5 0 60.0736 37.3263 31.2274 0 0 1
3289 1 12 0 56.6578 37.893 31.5083 0 0 1
3286 1 13 0 57.1841 39.3395 30.8599 0 0 1
3274 1 13 0 60.0974 38.3898 30.2515 0 0 1
3283 1 12 0 58.7138 39.2438 30.2279 0 0 1
3452 1 10 0 57.2091 40.4504 32.1428 0 0 1
3150 1 12 0 60.3238 37.8083 28.6524 0 0 1
3522 1 5 0 57.2318 41.3729 31.7688 0 0 1
3511 1 5 0 59.5722 41.5094 32.9035 0 0 1
3198 1 13 0 56.6693 35.5342 28.7215 0 0 1
3453 1 10 0 29.6258 41.8827 31.3881 1 0 1
1996 3 4 0 31.6839 44.9468 32.7051 0 0 0
2005 3 6 0 31.6291 47.2967 31.5353 0 0 0
2002 3 3 0 32.8993 45.5484 31.9963 0 0 0
1998 3 6 0 30.663 45.0734 32.2047 0 0 0
2003 3 4 0 32.6994 47.0032 31.5727 0 0 0
2004 3 1 0 33.7584 45.5418 32.754 0 0 0
1995 3 3 0 31.5335 45.4961 34.1914 0 0 0
2001 3 9 0 33.3493 44.7727 31.3228 0 0 0
2009 3 3 0 33.2724 47.0581 30.1299 0 0 0
2008 3 9 0 32.7697 46.3169 29.518 0 0 0
3454 1 10 0 29.0022 45.7106 29.0633 1 0 1
1999 3 11 0 31.8859 43.5102 32.7644 0 0 0
2000 3 8 0 32.7676 43.3527 32.9227 0 0 0
1997 3 1 0 31.8822 46.5635 34.3598 0 0 0
2011 3 1 0 34.2546 46.4638 30.0001 0 0 0
3524 1 5 0 29.5233 46.2498 29.7044 1 0 1
1991 3 6 0 29.3849 44.9019 34.0264 0 0 0
1989 3 4 0 30.166 45.2122 34.7891 0 0 0
1994 3 9 0 32.3023 44.9653 34.7295 0 0 0
1984 3 6 0 30.4017 47.8376 34.0089 0 0 0
3489 1 5 0 30.8851 43.1097 29.3628 1 0 1
3523 1 5 0 29.0543 42.5784 31.6164 1 0 1
182 1 11 0 33.1343 41.8561 34.9673 0 0 0
187 1 1 0 35.0375 43.5717 34.0723 0 0 0
1982 3 4 0 29.5185 47.7594 34.6705 0 0 0
2006 3 11 0 33.3471 47.8388 32.4928 0 0 0
3231 1 12 0 31.2136 43.9971 29.1057 1 0 1
2150 4 9 0 41.6555 41.9286 31.8335 0 0 0
2134 4 11 0 35.6745 41.849 30.7598 0 0 0
2140 4 6 0 39.261 42.0739 30.722 0 0 0
2135 4 8 0 36.0368 42.7293 30.9898 0 0 0
2133 4 6 0 37.053 42.2046 29.3829 0 0 0
1589 3 3 0 38.637 45.1488 31.6298 0 0 0
1588 3 9 0 38.2923 44.1891 31.1559 0 0 0
1590 3 4 0 39.9676 45.4954 30.9727 0 0 0
1591 3 1 0 38.6343 45.0536 32.7362 0 0 0
1593 3 11 0 39.9195 44.9115 29.7327 0 0 0
1584 3 1 0 36.4515 45.3648 32.9893 0 0 0
1583 3 4 0 37.5432 46.1544 31.2221 0 0 0
1582 3 3 0 36.6751 46.3509 32.5119 0 0 0
1586 3 11 0 36.6357 45.541 30.2645 0 0 0
1587 3 8 0 36.2103 44.8037 30.7231 0 0 0
1598 3 1 0 40.9805 44.2317 32.5583 0 0 0
1599 3 6 0 41.1666 46.9672 32.8985 0 0 0
1581 3 9 0 35.6112 46.6223 32.2498 0 0 0
1592 3 6 0 40.1126 46.6372 30.8235 0 0 0
1585 3 6 0 37.8292 47.1038 30.7552 0 0 0
1594 3 8 0 40.1064 45.5521 29.0499 0 0 0
1596 3 3 0 41.1916 45.0355 31.8532 0 0 0
194 1 1 0 37.4438 42.8294 33.965 0 0 0
1595 3 9 0 41.9815 44.588 31.1473 0 0 0
1578 3 6 0 36.7831 47.5443 34.4184 0 0 0
1576 3 4 0 37.162 47.5306 33.3587 0 0 0
1579 3 11 0 38.5668 47.5369 33.4659 0 0 0
191 1 9 0 37.6954 44.5272 34.5423 0 0 0
192 1 3 0 37.5258 43.5065 34.9199 0 0 0
198 1 9 0 39.9937 43.9912 34.7303 0 0 0
201 1 1 0 40.4189 42.369 34.734 0 0 0
1601 3 8 0 43.1465 44.9735 33.2844 0 0 0
2155 4 11 0 43.766 42.3103 33.1911 0 0 0
1597 3 4 0 41.923 46.2571 32.526 0 0 0
1600 3 11 0 42.7582 45.8017 33.5732 0 0 0
1633 3 1 0 45.7603 45.7551 33.1449 0 0 0
1631 3 3 0 46.265 44.7858 33.1366 0 0 0
1626 3 1 0 45.5643 45.9109 30.9835 0 0 0
1624 3 3 0 46.6649 45.8091 30.8897 0 0 0
1632 3 4 0 46.9882 44.5882 34.4685 0 0 0
1640 3 1 0 44.8811 44.4638 35.0779 0 0 0
1625 3 4 0 47.185 44.7708 31.9169 0 0 0
1623 3 9 0 46.8882 45.3802 29.8788 0 0 0
1630 3 9 0 45.4913 44.0549 32.986 0 0 0
1627 3 6 0 48.1895 45.1035 32.1368 0 0 0
2083 3 11 0 42.5353 42.6393 29.4202 0 0 0
1634 3 6 0 47.803 45.3021 34.508 0 0 0
1635 3 11 0 47.6151 43.3261 34.3696 0 0 0
1603 3 3 0 42.6992 47.0681 31.5364 0 0 0
1602 3 9 0 42.322 46.8135 30.528 0 0 0
1636 3 8 0 48.338 43.3515 33.702 0 0 0
1605 3 1 0 43.7255 46.578 31.5394 0 0 0
2084 3 8 0 41.9499 41.9633 29.1707 0 0 0
2078 3 9 0 44.3899 44.1246 29.5482 0 0 0
2156 4 8 0 43.5054 42.7966 33.9653 0 0 0
2088 3 1 0 45.6319 41.6364 28.7978 0 0 0
2080 3 4 0 43.6794 42.4578 28.5805 0 0 0
1628 3 11 0 47.0357 43.5022 31.318 0 0 0
1618 3 4 0 47.3177 47.2195 30.8757 0 0 0
1616 3 9 0 46.4424 47.7663 32.7501 0 0 0
1629 3 8 0 47.8736 43.1503 31.4776 0 0 0
1620 3 6 0 48.3514 47.2361 31.2531 0 0 0
1613 3 6 0 44.9268 48.1484 30.5579 0 0 0
1617 3 3 0 46.6458 48.2415 31.7915 0 0 0
1621 3 18 0 47.2744 47.7548 29.5759 0 0 0
2324 4 8 0 50.737 42.1766 32.4333 0 0 0
2322 4 6 0 52.0478 42.5375 33.8562 0 0 0
3451 1 10 0 51.2331 45.4732 32.2228 0 0 1
3413 1 13 0 52.2262 45.1359 30.9406 0 0 1
3521 1 5 0 50.9777 46.4043 32.2271 0 0 1
3421 1 12 0 51.3973 44.2394 29.8053 0 0 1
3392 1 12 0 52.778 46.43 30.0715 0 0 1
3386 1 12 0 53.5277 44.1954 31.4437 0 0 1
3512 1 5 0 53.9273 43.5633 30.9137 0 0 1
3443 1 13 0 52.287 47.7727 29.2032 0 0 1
2321 4 1 0 50.1163 42.6948 35.0107 0 0 0
2525 4 6 0 52.006 47.2372 34.227 0 0 0
2533 4 11 0 51.0819 44.8701 35.1681 0 0 0
2523 4 4 0 51.3782 47.861 34.838 0 0 0
2528 4 9 0 49.4988 46.6547 34.5493 0 0 0
3589 1 10 0 50.6073 47.816 28.9067 0 0 1
3592 1 5 0 50.219 46.9387 28.9737 0 0 1
2336 4 6 0 54.7835 43.5549 34.7504 0 0 0
3520 1 5 0 48.7189 41.7023 29.3606 0 0 1
3300 1 12 0 54.6957 42.0517 29.0078 0 0 1
3247 1 12 0 61.0119 41.8397 29.2399 0 0 1
3379 1 12 0 59.8251 42.3861 33.225 0 0 1
3510 1 5 0 57.4447 44.364 31.8897 0 0 1
3494 1 5 0 60.6219 45.224 32.4776 0 0 1
3374 1 12 0 58.0371 44.2115 32.6314 0 0 1
3245 1 13 0 59.5585 42.6321 29.048 0 0 1
3251 1 12 0 60.5399 44.6589 31.7153 0 0 1
3249 1 12 0 59.0777 42.7936 30.5997 0 0 1
3372 1 13 0 59.4179 43.4912 32.0932 0 0 1
3124 1 12 0 56.1737 46.6976 29.3125 0 0 1
3467 1 5 0 58.3396 46.3406 30.9025 0 0 1
2352 4 8 0 56.8992 46.5634 33.4997 0 0 0
3119 1 12 0 58.1358 47.3227 31.018 0 0 1
2351 4 11 0 56.3053 46.2565 34.1499 0 0 0
3117 1 13 0 56.8443 47.907 30.1859 0 0 1
1985 3 18 0 61.3782 47.6029 33.8113 -1 0 0
2338 4 8 0 57.0033 42.0623 34.2947 0 0 0
2337 4 11 0 56.2856 42.4952 33.9555 0 0 0
2334 4 4 0 55.4523 42.7506 35.028 0 0 0
2353 4 9 0 58.6871 47.2333 34.8166 0 0 0
2007 3 8 0 32.7359 48.4962 32.7823 0 0 0
2010 3 4 0 33.3218 48.4826 29.4853 0 0 0
2013 3 11 0 31.9828 48.8503 29.0393 0 0 0
2014 3 8 0 31.3092 48.3487 29.5158 0 0 0
2012 3 6 0 33.6389 49.1672 30.3059 0 0 0
1554 3 3 0 31.8313 53.1339 31.1106 0 0 0
1553 3 9 0 30.8099 53.2051 31.3208 0 0 0
1557 3 6 0 33.2138 51.5151 30.7295 0 0 0
1555 3 4 0 32.6357 51.9275 31.5475 0 0 0
1558 3 18 0 31.8123 50.8144 31.8105 0 0 0
1560 3 9 0 32.7857 52.9266 33.5187 0 0 0
1561 3 3 0 33.4111 52.4046 32.7933 0 0 0
1564 3 6 0 33.5324 50.3962 33.5825 0 0 0
1549 3 1 0 30.6488 51.4557 29.5282 0 0 0
1556 3 1 0 32.2121 54.0168 31.6644 0 0 0
1562 3 4 0 34.1754 51.338 33.5333 0 0 0
1563 3 1 0 34.124 53.1115 32.4263 0 0 0
1548 3 4 0 31.8562 53.3103 29.5724 0 0 0
1551 3 18 0 33.155 53.4941 29.1758 0 0 0
1565 3 11 0 34.4363 51.7233 34.8994 0 0 0
3465 1 5 0 29.1953 48.8362 61.4148 1 0 0
1978 3 11 0 31.3804 50.2728 34.9043 0 0 0
1547 3 3 0 31.3 52.1025 28.8819 0 0 0
1971 3 11 0 29.5018 53.4107 34.5183 0 0 0
1550 3 6 0 31.3394 54.1958 29.1538 0 0 0
1977 3 6 0 29.5505 50.5439 34.0563 0 0 0
1972 3 8 0 30.13 53.3973 33.8027 0 0 0
1979 3 8 0 31.6565 49.5398 34.4164 0 0 0
1975 3 4 0 29.9733 50.2824 34.9953 0 0 0
1546 3 9 0 32.0679 51.3285 28.6466 0 0 0
1542 3 1 0 28.8975 53.5775 28.5968 0 0 0
1570 3 1 0 35.4298 50.9808 31.7992 0 0 0
1568 3 3 0 35.5462 51.1644 32.8449 0 0 0
1571 3 6 0 35.7784 49.5537 34.459 0 0 0
1567 3 9 0 36.0305 52.1352 32.8999 0 0 0
1580 3 8 0 38.9355 48.4561 33.4315 0 0 0
1577 3 1 0 35.7368 48.6121 32.1134 0 0 0
2952 10 20 0 37.0179 52.785 29.4026 1 0 1
2946 10 15 0 39.0929 51.5882 30.1296 1 0 1
1575 3 3 0 36.6744 48.8626 32.6452 0 0 0
1574 3 9 0 37.4219 49.1216 31.946 0 0 0
2951 10 16 0 39.7568 51.6933 29.2787 1 0 1
2944 10 20 0 40.9813 52.3273 31.5023 1 0 1
2949 10 15 0 38.2971 52.8582 30.2337 1 0 1
2954 10 16 0 38.0009 52.9853 31.2522 1 0 1
1569 3 4 0 36.2934 50.0381 33.5559 0 0 0
2950 10 16 0 38.4123 50.7603 29.9255 1 0 1
2945 10 15 0 39.831 51.3449 31.4961 1 0 1
2948 10 16 0 40.181 50.3279 31.5454 1 0 1
2947 10 16 0 39.2985 51.64 32.4123 1 0 1
1572 3 18 0 37.5624 50.5066 34.037 0 0 0
2953 10 16 0 38.8932 53.7448 29.9109 1 0 1
1496 3 8 0 36.0416 54.4293 31.9242 0 0 0
2956 10 16 0 40.9773 53.0416 30.6237 1 0 1
1176 2 1 0 39.9718 53.8982 34.421 0 -1 0
1180 2 9 0 37.7665 53.5132 34.8289 0 -1 0
2021 3 8 0 36.2922 50.0068 29.0459 0 0 0
1606 3 6 0 42.1467 48.7935 32.6284 0 0 0
1607 3 18 0 42.4746 49.1943 30.6002 0 0 0
1609 3 9 0 44.4817 48.3217 33.1584 0 0 0
1604 3 4 0 42.8254 48.5263 31.8304 0 0 0
1611 3 4 0 45.315 48.8209 31.3096 0 0 0
1619 3 1 0 47.3602 49.082 31.9437 0 0 0
1610 3 3 0 44.1737 48.9046 32.2953 0 0 0
1612 3 1 0 44.0749 50.0094 32.5373 0 0 0
1614 3 18 0 45.4841 50.0724 30.6728 0 0 0
2504 4 6 0 46.878 51.5549 33.726 0 0 0
2494 4 3 0 44.9975 54.0734 32.0675 0 0 0
2493 4 9 0 45.0147 53.1617 31.5131 0 0 0
2495 4 4 0 45.9706 54.0095 33.3121 0 0 0
2497 4 6 0 47.006 53.6455 33.0444 0 0 0
2502 4 4 0 46.4545 51.9595 34.6417 0 0 0
2501 4 3 0 45.4144 52.969 34.3713 0 0 0
2489 4 1 0 43.9729 54.2476 29.776 0 0 0
2500 4 9 0 44.5755 52.4454 33.8042 0 0 0
2496 4 1 0 43.9825 54.1503 32.4915 0 0 0
2506 4 8 0 45.8128 50.1033 34.807 0 0 0
519 1 8 0 42.966 50.1116 34.7127 0 0 0
518 1 11 0 42.4278 50.8328 35.094 0 0 0
3067 18 16 0 48.166 50.9843 30.0208 -1 2 1
3068 18 16 0 48.7514 52.4816 30.6258 -1 2 1
2517 4 1 0 48.653 50.1036 35.073 0 0 0
3065 18 15 0 48.7202 51.909 29.6818 -1 2 1
2524 4 1 0 49.9058 48.5831 33.4277 0 0 0
2521 4 9 0 51.5108 49.0045 33.0301 0 0 0
2522 4 3 0 50.847 48.9092 33.9349 0 0 0
2514 4 9 0 48.909 50.8005 33.5603 0 0 0
2519 4 11 0 51.5764 51.2362 33.7519 0 0 0
2512 4 11 0 49.1672 53.2844 34.2322 0 0 0
2515 4 3 0 49.2433 50.8541 34.5699 0 0 0
2374 4 9 0 53.9803 52.4713 31.9414 0 0 0
3590 1 10 0 52.7717 49.062 30.1943 0 0 1
3593 1 5 0 52.1592 49.3298 30.9152 0 0 1
3069 18 15 0 51.03 52.5549 28.8617 -1 2 1
3077 18 22 0 53.4931 52.2287 28.8085 -1 2 1
3073 18 16 0 51.2007 53.2417 29.6504 -1 2 1
2365 4 11 0 54.799 49.5099 34.7778 0 0 0
2379 4 11 0 52.5762 54.1605 33.5996 0 0 0
2513 4 8 0 49.4524 54.0611 34.6851 0 0 0
2516 4 4 0 50.7087 50.3639 34.5304 0 0 0
2520 4 8 0 52.4715 50.9261 33.8427 0 0 0
2371 4 6 0 54.4629 52.7712 34.4543 0 0 0
2375 4 3 0 54.559 53.2647 32.374 0 0 0
2381 4 9 0 53.2826 54.7126 30.607 0 0 0
2376 4 4 0 53.7056 54.4512 32.6905 0 0 0
2380 4 8 0 52.7821 54.5784 34.4309 0 0 0
3066 18 15 0 50.0586 51.4209 29.3094 -1 2 1
3071 18 16 0 50.3593 50.8084 30.216 -1 2 1
3594 1 5 0 55.1336 49.1091 30.826 0 0 1
3591 1 10 0 55.7715 48.5316 31.2733 0 0 1
2367 4 9 0 55.2788 50.802 32.8629 0 0 0
2369 4 4 0 55.1734 52.7325 33.6874 0 0 0
2359 4 8 0 58.6447 49.7448 33.2586 0 0 0
2362 4 4 0 55.7081 50.568 34.9909 0 0 0
2368 4 3 0 55.7933 51.3408 33.6457 0 0 0
2370 4 1 0 56.7943 51.1933 33.2233 0 0 0
2357 4 6 0 57.0595 48.8405 33.8071 0 0 0
3122 1 12 0 57.1867 49.2417 29.2969 0 0 1
2993 13 16 0 58.0806 52.3646 31.2805 0 -1 1
2990 13 15 0 59.2138 52.3308 31.5546 0 -1 1
2991 13 15 0 59.8404 53.7507 31.3406 0 -1 1
2992 13 16 0 59.1721 52.1051 32.6299 0 -1 1
2989 13 20 0 59.892 51.1657 30.8793 0 -1 1
3001 13 16 0 59.3338 50.7938 29.9711 0 -1 1
2995 13 16 0 60.9115 53.5583 31.1563 0 -1 1
2358 4 11 0 58.8523 49.6181 34.1834 0 0 0
2355 4 4 0 57.6768 49.0343 34.7156 0 0 0
2998 13 16 0 58.7223 53.6218 29.397 0 -1 1
3546 1 5 0 57.1775 51.8644 29.3641 0 0 1
2994 13 15 0 59.0876 54.3471 30.2151 0 -1 1
2996 13 16 0 59.6916 54.5194 32.175 0 -1 1
2377 4 1 0 55.3478 53.5857 31.6274 0 0 0
2372 4 18 0 56.1525 53.6777 34.0821 0 0 0
46 1 4 0 32.9881 61.4305 31.0846 0 -1 0
51 1 9 0 35.17 61.0152 30.8771 0 -1 0
49 1 11 0 32.699 60.1636 30.5977 0 -1 0
45 1 3 0 32.7194 61.41 32.5991 0 -1 0
44 1 9 0 32.1592 60.5107 32.7385 0 -1 0
1476 3 9 0 30.521 55.972 30.9331 0 0 0
1477 3 3 0 30.0916 56.1871 31.8935 0 0 0
1485 3 4 0 33.625 56.3698 33.0146 0 0 0
1464 3 4 0 30.1017 58.7107 29.6018 0 0 0
1487 3 6 0 33.6346 55.3483 32.6235 0 0 0
1466 3 6 0 30.3315 59.3947 30.4783 0 0 0
1471 3 4 0 29.3348 57.4021 31.7146 0 0 0
1473 3 6 0 29.8396 58.1927 32.3239 0 0 0
1463 3 3 0 29.3793 59.5968 28.6027 0 0 0
1486 3 1 0 32.583 57.0693 31.402 0 0 0
1484 3 3 0 32.4335 57.0803 32.4935 0 0 0
1507 3 1 0 34.5529 57.8489 29.1926 0 0 0
1493 3 1 0 34.6104 58.0759 32.3155 0 0 0
1478 3 4 0 31.1848 56.3326 32.9727 0 0 0
1483 3 9 0 32.5139 58.1484 32.85 0 0 0
1479 3 1 0 29.3652 55.3616 32.052 0 0 0
1494 3 6 0 34.9455 55.8313 30.8353 0 0 0
1467 3 11 0 31.2578 58.2764 28.9507 0 0 0
1470 3 3 0 29.1637 57.6394 30.1787 0 0 0
1468 3 8 0 31.7 57.6515 29.5569 0 0 0
40 1 1 0 30.298 61.3614 33.874 0 -1 0
47 1 1 0 33.6011 61.2939 33.2086 0 -1 0
50 1 8 0 33.456 59.5869 30.836 0 -1 0
1491 3 3 0 34.8753 57.0664 32.646 0 0 0
1469 3 9 0 29.2413 56.7109 29.5809 0 0 0
1480 3 6 0 31.5077 55.2712 33.3183 0 0 0
1481 3 18 0 30.5209 56.9477 34.0768 0 0 0
1488 3 18 0 33.5905 56.2662 34.4177 0 0 0
55 1 6 0 34.5316 61.2622 28.5891 0 -1 0
1505 3 3 0 35.5131 58.1106 28.7516 0 0 0
1504 3 9 0 35.684 59.183 29.0756 0 0 0
1492 3 4 0 35.6405 56.3166 31.5579 0 0 0
1502 3 18 0 36.5316 55.8372 28.9486 0 0 0
1490 3 9 0 35.4903 57.1063 33.5275 0 0 0
1127 2 1 0 36.1609 60.2566 33.7085 0 -1 0
1125 2 3 0 36.9064 60.7135 34.3448 0 -1 0
1134 2 1 0 37.7386 61.3645 31.4057 0 -1 0
1499 3 4 0 36.6318 57.1808 29.3165 0 0 0
1500 3 1 0 36.4366 58.3151 31.1229 0 0 0
1495 3 11 0 36.4391 55.2897 32.1344 0 0 0
1498 3 3 0 36.6478 57.2716 30.8705 0 0 0
1126 2 4 0 38.1061 60.9343 33.5078 0 -1 0
1128 2 6 0 38.4204 60.0084 33.0657 0 -1 0
1497 3 9 0 37.6848 57.0286 31.2333 0 0 0
1501 3 6 0 37.5678 57.5853 28.7666 0 0 0
2472 4 9 0 40.0589 58.0734 30.2746 0 0 0
2473 4 3 0 40.8415 58.1806 29.3957 0 0 0
2470 4 11 0 39.271 60.0129 29.0421 0 0 0
2482 4 1 0 41.5607 55.4641 30.3176 0 0 0
2475 4 1 0 41.7543 58.6351 29.7792 0 0 0
2471 4 8 0 38.4339 59.7544 28.6805 0 0 0
1129 2 11 0 39.2355 61.4095 34.2299 0 -1 0
1141 2 1 0 40.3661 60.6203 31.726 0 -1 0
1164 2 11 0 41.1796 58.0688 32.5526 0 -1 0
1165 2 8 0 40.2377 58.2754 32.5327 0 -1 0
1169 2 1 0 40.7684 55.8068 33.0528 0 -1 0
1163 2 6 0 41.0012 57.9947 34.6154 0 -1 0
1167 2 3 0 41.5702 56.0007 33.798 0 -1 0
1130 2 8 0 39.7571 60.6315 34.2411 0 -1 0
1161 2 4 0 41.5953 57.5563 33.8245 0 -1 0
1179 2 8 0 38.1064 57.0055 34.6295 0 -1 0
1178 2 11 0 38.414 56.1244 34.32 0 -1 0
2474 4 4 0 41.1286 56.8777 28.7103 0 0 0
2478 4 8 0 39.5601 55.91 29.2117 0 0 0
2491 4 11 0 46.5956 55.4699 30.8755 0 0 0
2479 4 9 0 42.1404 54.8751 28.7742 0 0 0
2480 4 3 0 42.0381 55.8071 29.3336 0 0 0
2486 4 9 0 45.1702 55.2252 29.0226 0 0 0
2492 4 8 0 46.6184 56.3936 30.5937 0 0 0
2487 4 3 0 44.4342 55.2229 29.8701 0 0 0
1166 2 9 0 42.4992 55.5203 33.3877 0 -1 0
1150 2 11 0 45.1883 61.2013 31.2411 0 -1 0
1147 2 4 0 44.0665 61.0892 32.0968 0 -1 0
1148 2 1 0 42.2688 60.5982 30.9693 0 -1 0
2488 4 4 0 45.232 55.2639 31.1583 0 0 0
2498 4 11 0 46.1239 55.3293 33.924 0 0 0
2499 4 8 0 47.0725 55.2885 34.1957 0 0 0
1156 2 6 0 42.2921 59.9243 33.7391 0 -1 0
1152 2 9 0 45.1104 59.3276 32.6283 0 -1 0
2483 4 6 0 43.2851 56.9255 30.6675 0 0 0
2490 4 6 0 44.9015 56.1463 31.6543 0 0 0
2481 4 4 0 43.4578 56.3731 29.7363 0 0 0
1162 2 1 0 43.5958 57.2906 33.4035 0 -1 0
1153 2 3 0 44.071 59.6608 32.5191 0 -1 0
1155 2 1 0 43.6546 59.0543 31.6849 0 -1 0
1160 2 3 0 43.0084 57.9879 34.0191 0 -1 0
1154 2 4 0 43.2553 59.4829 33.8442 0 -1 0
2403 4 3 0 48.1138 59.2584 28.8803 0 0 0
2405 4 1 0 47.1114 59.0547 28.9602 0 0 0
2402 4 9 0 48.4549 60.0736 29.5122 0 0 0
2484 4 18 0 44.0886 57.3092 28.8544 0 0 0
603 1 8 0 45.8628 57.723 35.0364 0 0 0
1159 2 9 0 43.2446 57.6487 35.0159 0 -1 0
1157 2 11 0 43.8943 60.0901 34.9904 0 -1 0
2904 7 15 0 53.1562 61.1174 29.1228 0 0 1
2909 7 16 0 52.7037 60.6858 30.0262 0 0 1
2398 4 1 0 48.9805 56.9449 31.0069 0 0 0
2397 4 4 0 49.0683 58.0913 29.1659 0 0 0
2400 4 11 0 48.5052 56.9162 28.572 0 0 0
2395 4 9 0 48.6034 58.6077 31.2344 0 0 0
2396 4 3 0 49.2802 57.9649 30.6869 0 0 0
610 1 8 0 49.0495 57.2707 34.0634 0 0 0
2399 4 6 0 49.9671 58.4057 28.6823 0 0 0
2384 4 1 0 54.0316 56.1445 31.2797 0 0 0
2378 4 6 0 54.3643 55.1328 33.2835 0 0 0
2382 4 3 0 53.2998 55.3644 31.5428 0 0 0
2391 4 1 0 52.7722 57.7485 30.5474 0 0 0
2394 4 8 0 51.0289 59.2364 32.8791 0 0 0
2387 4 21 0 50.5581 55.0216 32.5032 0 0 0
2386 4 18 0 50.8312 55.13 31.6011 0 0 0
2388 4 9 0 51.4637 56.8483 29.7158 0 0 0
2393 4 11 0 50.7142 58.3493 32.6537 0 0 0
2389 4 3 0 51.791 57.2139 30.6888 0 0 0
2383 4 4 0 51.9233 56.0647 31.6962 0 0 0
2390 4 4 0 50.7378 58.2054 31.2126 0 0 0
2392 4 6 0 50.9611 59.2318 30.8983 0 0 0
2385 4 6 0 51.8399 56.3828 32.8081 0 0 0
706 2 1 0 53.6429 57.9197 33.8831 -1 -1 0
2913 7 16 0 54.939 59.8601 28.7444 0 0 1
704 2 3 0 54.1472 58.731 34.4826 -1 -1 0
609 1 11 0 49.4552 56.8121 34.839 0 0 0
703 2 9 0 53.6163 59.6389 34.2651 -1 -1 0
2999 13 16 0 59.7901 54.9264 29.6432 0 -1 1
708 2 6 0 56.0218 57.8591 34.3141 -1 -1 0
1474 3 18 0 61 57.213 32.2807 -1 0 0
1465 3 1 0 61.3541 59.9788 29.0014 -1 0 0
718 2 9 0 56.8529 60.5539 30.869 -1 -1 0
705 2 4 0 55.6636 58.8428 34.4131 -1 -1 0
717 2 8 0 57.8117 58.4062 31.7377 -1 -1 0
716 2 11 0 58.2109 58.5942 32.575 -1 -1 0
2997 13 20 0 57.9645 55.2432 30.6673 0 -1 1