units			real
dimension		3
processors		* * *
boundary		p p p
atom_style		full
pair_style		lj/cut 10.0
bond_style		harmonic
angle_style 	harmonic
read_data		PVA4_equilibrated.data
Reading data file ...
  orthogonal box = (30.614546 29.037549 30.45605) to (59.769448 58.192451 59.610952)
  1 by 1 by 1 MPI processor grid
  reading atoms ...
  2808 atoms
  reading velocities ...
  2808 velocities
  scanning bonds ...
  3 = max bonds/atom
  scanning angles ...
  6 = max angles/atom
  reading bonds ...
  2804 bonds
  reading angles ...
  5200 angles
Finding 1-2 1-3 1-4 neighbors ...
  special bond factors lj:    0        0        0       
  special bond factors coul:  0        0        0       
     4 = max # of 1-2 neighbors
     7 = max # of 1-3 neighbors
    14 = max # of 1-4 neighbors
    18 = max # of special neighbors
  special bonds CPU = 0.004 seconds
  read_data CPU = 0.073 seconds
variable simname index ssc
variable tmp equal "lx"
variable L0 equal ${tmp}
variable L0 equal 29.1549029064426
variable strain equal "(lx - v_L0)/v_L0"
variable p1 equal "v_strain"
variable p2 equal "-pxx/10000*1.01325"
variable p3 equal "-pyy/10000*1.01325"
variable p4 equal "-pzz/10000*1.01325"
variable p5 equal "lx"
variable p6 equal "ly"
variable p7 equal "lz"
variable p8 equal "temp"

fix		1 all npt temp 300 300 50 y 0 0 1000 z 0 0 1000 drag 2
fix		2 all deform 1 x erate 1e-5 units box remap x
fix        3 all ave/time 1 100 100 v_p2 v_p3
variable avg_stress equal f_3[1]
#${p3} ${p4} ${p5} ${p6} ${p7} ${p8}
fix def1 all print 100 "${p1} ${p2} ${avg_stress}" file ${simname}.txt screen no
fix def1 all print 100 "${p1} ${p2} ${avg_stress}" file ssc.txt screen no
thermo_style	custom step temp v_p2 pxx lx v_strain
thermo          100
timestep	1
run		1000000
Generated 36 of 36 mixed pair_coeff terms from geometric mixing rule
Last active /omp style is angle_style harmonic/omp
Neighbor list info ...
  update every 1 steps, delay 10 steps, check yes
  max neighbors/atom: 2000, page size: 100000
  master list distance cutoff = 12
  ghost atom cutoff = 12
  binsize = 6, bins = 5 5 5
  1 neighbor lists, perpetual/occasional/extra = 1 0 0
  (1) pair lj/cut/omp, perpetual
      attributes: half, newton on, omp
      pair build: half/bin/newton/omp
      stencil: half/bin/3d
      bin: standard
Per MPI rank memory allocation (min/avg/max) = 25.31 | 25.31 | 25.31 Mbytes
   Step          Temp           v_p2           Pxx             Lx          v_strain   
         0   306.92569     -0.032929718    324.99104      29.154903     -1.2185647e-16
       100   301.12054     -0.0048570231   47.935091      29.184058      0.001        
       200   302.80697      0.25783569    -2544.6404      29.213213      0.002        
       300   301.92054     -0.13791652     1361.1302      29.242368      0.003        
       400   301.40451      0.4446455     -4388.3099      29.271523      0.004        
       500   298.43135      0.31123828    -3071.683       29.300677      0.005        
       600   295.30543      0.24618465    -2429.6536      29.329832      0.006        
       700   303.08793     -0.056876253    561.32497      29.358987      0.007        
       800   298.46543      0.13689836    -1351.0817      29.388142      0.008        
       900   300.17234      0.083474179   -823.8261       29.417297      0.009        
      1000   298.35766      0.12876859    -1270.8471      29.446452      0.01         
      1100   298.62317     -0.070371448    694.51219      29.475607      0.011        
      1200   305.47117     -0.44425921     4384.4975      29.504762      0.012        
      1300   298.04125      0.043322313   -427.55799      29.533917      0.013        
      1400   299.04126     -0.13605649     1342.7731      29.563072      0.014        
      1500   300.90787     -0.031331202    309.21492      29.592226      0.015        
      1600   304.32826      0.036446841   -359.70236      29.621381      0.016        
      1700   300.15361     -0.077763163    767.46275      29.650536      0.017        
      1800   303.61719      0.24382744    -2406.3898      29.679691      0.018        
      1900   299.55757     -0.42984254     4242.216       29.708846      0.019        
      2000   298.85576      0.12372586    -1221.0793      29.738001      0.02         
      2100   302.49758     -0.0015317644   15.117339      29.767156      0.021        
      2200   297.08594      0.05621368    -554.78589      29.796311      0.022        
      2300   305.59404      0.18720697    -1847.5892      29.825466      0.023        
      2400   296.78508      0.24934557    -2460.8494      29.854621      0.024        
      2500   302.11052      0.30010762    -2961.8319      29.883775      0.025        
      2600   297.47695      0.38730037    -3822.3574      29.91293       0.026        
      2700   301.29292      0.21875012    -2158.8958      29.942085      0.027        
      2800   300.62707      0.48943265    -4830.3247      29.97124       0.028        
      2900   296.16366      0.23003549    -2270.2738      30.000395      0.029        
      3000   298.43069     -0.012832794    126.64983      30.02955       0.03         
      3100   296.7611      -0.24291322     2397.3671      30.058705      0.031        
      3200   303.27583     -0.3476972      3431.5046      30.08786       0.032        
      3300   304.76095     -0.20255229     1999.0357      30.117015      0.033        
      3400   298.05028     -0.19617175     1936.0647      30.14617       0.034        
      3500   299.59711     -0.38996613     3848.6665      30.175325      0.035        
      3600   300.37666     -0.36216111     3574.2522      30.204479      0.036        
      3700   302.59208     -0.048377463    477.44844      30.233634      0.037        
      3800   299.7182       0.30287113    -2989.1057      30.262789      0.038        
      3900   301.34595      0.35293686    -3483.216       30.291944      0.039        
      4000   300.73401      0.41772152    -4122.5908      30.321099      0.04         
      4100   300.64808      0.32406937    -3198.316       30.350254      0.041        
      4200   303.32616      0.10932085    -1078.9129      30.379409      0.042        
      4300   305.55679      0.2086951     -2059.6605      30.408564      0.043        
      4400   301.13305      0.26936219    -2658.3981      30.437719      0.044        
      4500   299.38032     -0.16610844     1639.3629      30.466874      0.045        
      4600   300.98285      0.083806969   -827.11048      30.496028      0.046        
      4700   301.7207      -0.034430386    339.80149      30.525183      0.047        
      4800   303.35277      0.29867049    -2947.6486      30.554338      0.048        
      4900   302.98644      0.19519103    -1926.3856      30.583493      0.049        
      5000   304.35426      0.28253679    -2788.4213      30.612648      0.05         
      5100   303.18362      0.15547012    -1534.3708      30.641803      0.051        
      5200   300.49512     -0.099962392    986.5521       30.670958      0.052        
      5300   298.50067      0.12037189    -1187.9782      30.700113      0.053        
      5400   301.01025      0.45587039    -4499.0909      30.729268      0.054        
      5500   296.38845      0.11088908    -1094.3902      30.758423      0.055        
      5600   299.02252      0.012531692   -123.67819      30.787577      0.056        
      5700   299.19713      0.1461852     -1442.7358      30.816732      0.057        
      5800   299.29888      0.13069283    -1289.838       30.845887      0.058        
      5900   299.76937      0.074090173   -731.21315      30.875042      0.059        
      6000   295.55348     -0.029400473    290.16011      30.904197      0.06         
      6100   297.17332      0.022408891   -221.15856      30.933352      0.061        
      6200   299.10478      0.37011385    -3652.7397      30.962507      0.062        
      6300   299.19638      0.34880924    -3442.4795      30.991662      0.063        
      6400   290.58961      0.033639816   -331.99918      31.020817      0.064        
      6500   301.83665     -0.091088879    898.97734      31.049972      0.065        
      6600   297.4284       0.067743184   -668.57325      31.079126      0.066        
      6700   304.77719     -0.092634318    914.22964      31.108281      0.067        
      6800   300.49861     -0.14061107     1387.7234      31.137436      0.068        
      6900   304.78418      0.077247807   -762.37658      31.166591      0.069        
      7000   304.30674      0.26511191    -2616.4511      31.195746      0.07         
      7100   301.59738      0.2016178     -1989.813       31.224901      0.071        
      7200   296.93314      0.28608819    -2823.4709      31.254056      0.072        
      7300   298.16683     -0.0042337584   41.783947      31.283211      0.073        
      7400   302.89727     -0.037775731    372.81748      31.312366      0.074        
      7500   303.79378      0.1524281     -1504.3483      31.341521      0.075        
      7600   300.88949      0.02496591    -246.39438      31.370676      0.076        
      7700   299.96619     -0.051369716    506.97968      31.39983       0.077        
      7800   302.22582      0.1119368     -1104.7303      31.428985      0.078        
      7900   303.04474      0.12511736    -1234.8123      31.45814       0.079        
      8000   301.30714      0.17582117    -1735.22        31.487295      0.08         
      8100   304.41958     -0.1600798      1579.8647      31.51645       0.081        
      8200   301.25855     -0.080795836    797.39291      31.545605      0.082        
      8300   301.89343      0.20660996    -2039.0818      31.57476       0.083        
      8400   300.90273      0.37753078    -3725.9391      31.603915      0.084        
      8500   298.55342      0.19922443    -1966.1922      31.63307       0.085        
      8600   300.90962      0.16978461    -1675.6439      31.662225      0.086        
      8700   295.32075      0.064705115   -638.58983      31.691379      0.087        
      8800   298.72144      0.058380208   -576.16785      31.720534      0.088        
      8900   301.45131      0.029285987   -289.03022      31.749689      0.089        
      9000   297.76334      0.12139306    -1198.0564      31.778844      0.09         
      9100   302.09143     -0.050527199    498.66468      31.807999      0.091        
      9200   304.21542      0.068045957   -671.56138      31.837154      0.092        
      9300   298.04494     -0.17537145     1730.7816      31.866309      0.093        
      9400   299.22593      0.15034802    -1483.8196      31.895464      0.094        
      9500   297.2762      -0.092179025    909.73624      31.924619      0.095        
      9600   302.32231      0.097988866   -967.07492      31.953774      0.096        
      9700   296.93278      0.33675581    -3323.5215      31.982928      0.097        
      9800   295.78941     -0.1062285      1048.3938      32.012083      0.098        
      9900   301.01347      0.13704162    -1352.4956      32.041238      0.099        
     10000   299.22016      0.11784684    -1163.0579      32.070393      0.1          
     10100   298.09248     -0.17443422     1721.5319      32.099548      0.101        
     10200   302.06255      0.33394747    -3295.8052      32.128703      0.102        
     10300   304.81269      0.10743669    -1060.3177      32.157858      0.103        
     10400   297.45856     -0.016661344    164.43468      32.187013      0.104        
     10500   306.64687     -0.23924141     2361.1292      32.216168      0.105        
     10600   305.84809      0.023730282   -234.19968      32.245323      0.106        
     10700   298.56159     -0.21316527     2103.7776      32.274478      0.107        
     10800   295.50903     -0.24968743     2464.2234      32.303632      0.108        
     10900   301.45604     -0.07551404     745.26563      32.332787      0.109        
     11000   304.02622      0.15617361    -1541.3137      32.361942      0.11         
     11100   295.33868      0.0055913073  -55.181913      32.391097      0.111        
     11200   304.0199      -0.046206067    456.01842      32.420252      0.112        
     11300   302.13736      0.0042268819  -41.716081      32.449407      0.113        
     11400   300.13111     -0.068591809    676.94852      32.478562      0.114        
     11500   303.84859     -0.23511736     2320.4279      32.507717      0.115        
     11600   303.53185      0.0050399011  -49.739957      32.536872      0.116        
     11700   300.47381     -0.16615582     1639.8305      32.566027      0.117        
     11800   301.62845     -0.11893681     1173.8151      32.595181      0.118        
     11900   296.68121      0.095073246   -938.29998      32.624336      0.119        
     12000   302.66102      0.12687095    -1252.119       32.653491      0.12         
     12100   304.68496      0.41902063    -4135.4121      32.682646      0.121        
     12200   298.9239       0.020596366   -203.27032      32.711801      0.122        
     12300   299.09643      0.078504788   -774.78202      32.740956      0.123        
     12400   302.86416     -0.10330856     1019.5762      32.770111      0.124        
     12500   296.39759     -0.21331392     2105.2447      32.799266      0.125        
     12600   302.85816     -0.27798634     2743.5119      32.828421      0.126        
     12700   299.41483      0.20780017    -2050.8282      32.857576      0.127        
     12800   298.93879      0.16625374    -1640.7968      32.88673       0.128        
     12900   294.78694      0.10457687    -1032.0935      32.915885      0.129        
     13000   296.91305      0.072098168   -711.5536       32.94504       0.13         
     13100   302.5472       0.093790053   -925.63585      32.974195      0.131        
     13200   300.07696      0.16247612    -1603.5146      33.00335       0.132        
     13300   297.85222      0.055834361   -551.04229      33.032505      0.133        
     13400   304.0328       0.068973573   -680.71624      33.06166       0.134        
     13500   298.05271     -0.14526272     1433.6316      33.090815      0.135        
     13600   303.7288       0.12717461    -1255.1158      33.11997       0.136        
     13700   294.70069     -0.16517802     1630.1803      33.149125      0.137        
     13800   299.66751     -0.35323626     3486.1708      33.17828       0.138        
     13900   305.01233     -0.37490348     3700.0097      33.207434      0.139        
     14000   299.61613      0.089201964   -880.35493      33.236589      0.14         
     14100   303.44018      0.10175309    -1004.2249      33.265744      0.141        
     14200   297.94033     -0.26042929     2570.2373      33.294899      0.142        
     14300   300.81785      0.092287788   -910.80965      33.324054      0.143        
     14400   297.30997     -0.16176988     1596.5446      33.353209      0.144        
     14500   300.27272      0.24043893    -2372.9478      33.382364      0.145        
     14600   307.78624      0.015419543   -152.17905      33.411519      0.146        
     14700   303.96282     -0.44619769     4403.6288      33.440674      0.147        
     14800   303.71874     -0.22337051     2204.4956      33.469829      0.148        
     14900   301.24772      0.3739946     -3691.0398      33.498983      0.149        
     15000   299.87799     -0.13470988     1329.4832      33.528138      0.15         
     15100   300.40369      0.010845418   -107.03595      33.557293      0.151        
     15200   299.76431      0.21150713    -2087.4131      33.586448      0.152        
     15300   294.07209     -0.024492118    241.71841      33.615603      0.153        
     15400   301.36871     -0.029456183    290.70993      33.644758      0.154        
     15500   292.95056      0.041529352   -409.86284      33.673913      0.155        
     15600   301.825       -0.11357542     1120.9023      33.703068      0.156        
     15700   295.31037     -0.1738206      1715.476       33.732223      0.157        
     15800   297.60183      0.12351302    -1218.9788      33.761378      0.158        
     15900   302.65694     -0.16145767     1593.4633      33.790532      0.159        
     16000   298.18365     -0.010721671    105.81467      33.819687      0.16         
     16100   305.11857      0.020015584   -197.53846      33.848842      0.161        
     16200   296.7787       0.13841829    -1366.0823      33.877997      0.162        
     16300   307.60247      0.060212384   -594.25003      33.907152      0.163        
     16400   300.14677      0.065561978   -647.04641      33.936307      0.164        
     16500   304.37662     -0.25964831     2562.5296      33.965462      0.165        
     16600   303.21779      0.036610093   -361.31353      33.994617      0.166        
     16700   299.53149      0.31027984    -3062.2239      34.023772      0.167        
     16800   303.25587     -0.05088141     502.16047      34.052927      0.168        
     16900   302.65429     -0.21203991     2092.6712      34.082081      0.169        
     17000   297.80177      0.059641413   -588.61498      34.111236      0.17         
     17100   305.49717     -0.080918091    798.59947      34.140391      0.171        
     17200   297.77241      0.27945665    -2758.0227      34.169546      0.172        
     17300   300.36815      0.40165853    -3964.0615      34.198701      0.173        
     17400   294.02917      0.061007258   -602.09483      34.227856      0.174        
     17500   302.64394     -0.022111109    218.21968      34.257011      0.175        
     17600   307.89637      0.1282181     -1265.4142      34.286166      0.176        
     17700   295.30366      0.23393212    -2308.7306      34.315321      0.177        
     17800   294.71996      0.11249916    -1110.2804      34.344476      0.178        
     17900   300.18226      0.18185003    -1794.7202      34.373631      0.179        
     18000   294.71988      0.40945094    -4040.9666      34.402785      0.18         
     18100   303.01913      0.26548697    -2620.1527      34.43194       0.181        
     18200   304.61282      0.21295932    -2101.7451      34.461095      0.182        
     18300   300.22138      0.29994447    -2960.2217      34.49025       0.183        
     18400   294.99677      0.063639029   -628.06838      34.519405      0.184        
     18500   301.31023      0.38494073    -3799.0697      34.54856       0.185        
     18600   298.13499      0.13656953    -1347.8364      34.577715      0.186        
     18700   299.05863      0.20730265    -2045.9181      34.60687       0.187        
     18800   301.20989      0.17243772    -1701.8279      34.636025      0.188        
     18900   300.3844       0.13808629    -1362.8057      34.66518       0.189        
     19000   303.90325      0.23035318    -2273.4091      34.694334      0.19         
     19100   300.58322     -0.012486769    123.23483      34.723489      0.191        
     19200   301.7604       0.14064572    -1388.0653      34.752644      0.192        
     19300   296.03372     -0.042764137    422.04922      34.781799      0.193        
     19400   298.34717      0.41507047    -4096.4271      34.810954      0.194        
     19500   300.14925     -0.012576055    124.11601      34.840109      0.195        
     19600   300.34736      0.18005375    -1776.9923      34.869264      0.196        
     19700   302.36231      0.31724486    -3130.9633      34.898419      0.197        
     19800   302.84506      0.094512151   -932.7624       34.927574      0.198        
     19900   300.57013      0.18877925    -1863.1064      34.956729      0.199        
     20000   302.29738     -0.050013764    493.59748      34.985883      0.2          
     20100   302.97199      0.0073876743  -72.910676      35.015038      0.201        
     20200   302.70225     -0.10762127     1062.1393      35.044193      0.202        
     20300   303.80726      0.19196239    -1894.5215      35.073348      0.203        
     20400   300.75896      0.28229354    -2786.0207      35.102503      0.204        
     20500   300.39733      0.29004172    -2862.4892      35.131658      0.205        
     20600   300.44859      0.176281      -1739.7583      35.160813      0.206        
     20700   308.32843     -0.029398223    290.1379       35.189968      0.207        
     20800   302.31788     -0.12151373     1199.2473      35.219123      0.208        
     20900   298.47568      0.068146814   -672.55676      35.248278      0.209        
     21000   297.01881     -0.16298733     1608.5599      35.277433      0.21         
     21100   301.99921      0.053232488   -525.36381      35.306587      0.211        
     21200   300.82613     -0.00085653089  8.4533026      35.335742      0.212        
     21300   300.24025      0.2512665     -2479.8076      35.364897      0.213        
     21400   294.79632     -0.14025736     1384.2325      35.394052      0.214        
     21500   301.50824      0.094154251   -929.23021      35.423207      0.215        
     21600   302.04289      0.071827771   -708.88499      35.452362      0.216        
     21700   300.94458     -0.058856388    580.86739      35.481517      0.217        
     21800   305.01198      0.021137081   -208.60677      35.510672      0.218        
     21900   303.81301      0.23900271    -2358.7733      35.539827      0.219        
     22000   301.41926     -0.01613971     159.28655      35.568982      0.22         
     22100   302.72389     -0.047016231    464.01413      35.598136      0.221        
     22200   299.72977     -0.33358623     3292.2401      35.627291      0.222        
     22300   295.18492     -0.049775887    491.24981      35.656446      0.223        
     22400   302.31477     -0.036805947    363.24645      35.685601      0.224        
     22500   302.33034      0.26518094    -2617.1324      35.714756      0.225        
     22600   300.59163      0.20112715    -1984.9707      35.743911      0.226        
     22700   304.59627      0.20356612    -2009.0414      35.773066      0.227        
     22800   297.43986      0.23559756    -2325.1671      35.802221      0.228        
     22900   299.90191      0.18062822    -1782.662       35.831376      0.229        
     23000   299.17713      0.28651462    -2827.6795      35.860531      0.23         
     23100   299.74155     -0.071606595    706.70214      35.889685      0.231        
     23200   301.14701      0.17960128    -1772.5268      35.91884       0.232        
     23300   300.93975      0.14188424    -1400.2885      35.947995      0.233        
     23400   302.10646      0.31885129    -3146.8176      35.97715       0.234        
     23500   301.94638      0.19721549    -1946.3656      36.006305      0.235        
     23600   304.0489       0.22069662    -2178.1063      36.03546       0.236        
     23700   298.08582     -0.098009823    967.28174      36.064615      0.237        
     23800   301.25794      0.36741043    -3626.059       36.09377       0.238        
     23900   299.82618      0.077886658   -768.68155      36.122925      0.239        
     24000   301.41076      0.43133364    -4256.932       36.15208       0.24         
     24100   298.82585      0.38807774    -3830.0295      36.181235      0.241        
     24200   299.55321      0.47605338    -4698.2816      36.210389      0.242        
     24300   302.98307      0.007428842   -73.316971      36.239544      0.243        
     24400   306.15307      0.21769026    -2148.4358      36.268699      0.244        
     24500   302.20101      0.44735516    -4415.0521      36.297854      0.245        
     24600   298.59351     -0.059640512    588.60609      36.327009      0.246        
     24700   302.39902      0.35509579    -3504.523       36.356164      0.247        
     24800   299.57236      0.028165522   -277.97209      36.385319      0.248        
     24900   303.51732      0.19865463    -1960.5687      36.414474      0.249        
     25000   301.11447      0.3364105     -3320.1135      36.443629      0.25         
     25100   299.8547      -0.14734619     1454.1938      36.472784      0.251        
     25200   300.87189      0.043113674   -425.49888      36.501938      0.252        
     25300   300.22186     -0.050814501    501.50013      36.531093      0.253        
     25400   299.53567      0.32819704    -3239.053       36.560248      0.254        
     25500   305.54387      0.15062118    -1486.5154      36.589403      0.255        
     25600   299.40065     -0.14935299     1473.9995      36.618558      0.256        
     25700   297.11109      0.018917577   -186.70197      36.647713      0.257        
     25800   299.40071      0.10116322    -998.40338      36.676868      0.258        
     25900   299.73546      0.24299362    -2398.1606      36.706023      0.259        
     26000   297.35301      0.22030262    -2174.2178      36.735178      0.26         
     26100   297.60346     -0.063240349    624.13372      36.764333      0.261        
     26200   304.26887      0.10448511    -1031.1878      36.793487      0.262        
     26300   303.10889      0.087562569   -864.17537      36.822642      0.263        
     26400   298.67594      0.29022717    -2864.3194      36.851797      0.264        
     26500   294.32567      0.095646233   -943.95493      36.880952      0.265        
     26600   306.85259      0.31583983    -3117.0968      36.910107      0.266        
     26700   302.71973      0.47949847    -4732.282       36.939262      0.267        
     26800   299.14866      0.34150144    -3370.3571      36.968417      0.268        
     26900   301.27721      0.32606445    -3218.0059      36.997572      0.269        
     27000   296.59807      0.45255133    -4466.3343      37.026727      0.27         
     27100   294.23939      0.27210449    -2685.4625      37.055882      0.271        
     27200   297.66538     -0.010348884    102.13555      37.085036      0.272        
     27300   301.20049      0.074576498   -736.01281      37.114191      0.273        
     27400   303.26529      0.026855188   -265.0401       37.143346      0.274        
     27500   293.40512      0.33924245    -3348.0627      37.172501      0.275        
     27600   299.49947      0.37188428    -3670.2125      37.201656      0.276        
     27700   299.88449      0.41078236    -4054.1067      37.230811      0.277        
     27800   302.78988      0.24329899    -2401.1743      37.259966      0.278        
     27900   297.90439      0.43968927    -4339.3957      37.289121      0.279        
     28000   298.41194      0.11102556    -1095.737       37.318276      0.28         
     28100   301.12527      0.019577937   -193.21922      37.347431      0.281        
     28200   295.5482       0.14071959    -1388.7944      37.376586      0.282        
     28300   299.53224     -0.07553157     745.43864      37.40574       0.283        
     28400   301.45439      0.46315231    -4570.9579      37.434895      0.284        
     28500   299.64843      0.31120822    -3071.3863      37.46405       0.285        
     28600   298.92265      0.32117872    -3169.7875      37.493205      0.286        
     28700   304.19241     -0.19837035     1957.7632      37.52236       0.287        
     28800   297.80232      0.13148046    -1297.6112      37.551515      0.288        
     28900   303.98539      0.15406238    -1520.4774      37.58067       0.289        
     29000   300.14379     -0.21071925     2079.6373      37.609825      0.29         
     29100   303.74837      0.32527291    -3210.1941      37.63898       0.291        
     29200   299.44747      0.0073162799  -72.206069      37.668135      0.292        
     29300   299.91127     -0.32686661     3225.9226      37.697289      0.293        
     29400   304.74721     -0.11931831     1177.5802      37.726444      0.294        
     29500   304.71014     -0.046528177    459.1974       37.755599      0.295        
     29600   301.55988      0.083836992   -827.40678      37.784754      0.296        
     29700   295.07498      0.070649566   -697.25701      37.813909      0.297        
     29800   300.33004     -0.10058923     992.73855      37.843064      0.298        
     29900   298.43501      0.45606935    -4501.0546      37.872219      0.299        
     30000   300.87736     -0.067198751    663.2001       37.901374      0.3          
     30100   302.52705      0.24250108    -2393.2995      37.930529      0.301        
     30200   299.96865      0.25879422    -2554.1004      37.959684      0.302        
     30300   300.10204      0.1792042     -1768.608       37.988838      0.303        
     30400   300.00321      0.092679825   -914.67876      38.017993      0.304        
     30500   297.96153      0.079787937   -787.44571      38.047148      0.305        
     30600   299.62418     -0.14203537     1401.7801      38.076303      0.306        
     30700   302.67928      0.28631617    -2825.7209      38.105458      0.307        
     30800   299.54157     -0.10501152     1036.3831      38.134613      0.308        
     30900   291.71968     -0.21666673     2138.3344      38.163768      0.309        
     31000   301.27288      0.03066618    -302.65166      38.192923      0.31         
     31100   300.41475      0.2361199     -2330.3222      38.222078      0.311        
     31200   300.25197      0.17008304    -1678.5891      38.251233      0.312        
     31300   299.23737     -0.025799682    254.62306      38.280388      0.313        
     31400   300.28862     -0.29144176     2876.3065      38.309542      0.314        
     31500   300.00062     -0.0064819476   63.971849      38.338697      0.315        
     31600   303.44223      0.044005363   -434.29916      38.367852      0.316        
     31700   302.17457      0.026372897   -260.28026      38.397007      0.317        
     31800   296.3251      -0.0045514291   44.919113      38.426162      0.318        
     31900   301.42886     -0.18820613     1857.4501      38.455317      0.319        
     32000   299.51285      0.18542866    -1830.0386      38.484472      0.32         
     32100   300.90436      0.028259366   -278.89826      38.513627      0.321        
     32200   297.10182      0.25935526    -2559.6374      38.542782      0.322        
     32300   301.903        0.28675068    -2830.0092      38.571937      0.323        
     32400   300.04612     -0.15994333     1578.5179      38.601091      0.324        
     32500   299.97776     -0.22895461     2259.6063      38.630246      0.325        
     32600   304.16955     -0.16607451     1639.028       38.659401      0.326        
     32700   296.86532      0.09255508    -913.44762      38.688556      0.327        
     32800   298.67237     -0.15571902     1536.8273      38.717711      0.328        
     32900   300.39147      0.14445438    -1425.6539      38.746866      0.329        
     33000   300.61595     -0.21308101     2102.9461      38.776021      0.33         
     33100   296.57871      0.23875062    -2356.2855      38.805176      0.331        
     33200   300.78889      0.4215559     -4160.4333      38.834331      0.332        
     33300   301.08173      0.15165525    -1496.7209      38.863486      0.333        
     33400   296.82731      0.14028389    -1384.4944      38.89264       0.334        
     33500   297.53685      0.16016472    -1580.7029      38.921795      0.335        
     33600   298.82045      0.22482189    -2218.8196      38.95095       0.336        
     33700   301.24608      0.062545057   -617.27172      38.980105      0.337        
     33800   301.28482      0.060672034   -598.78642      39.00926       0.338        
     33900   296.88045     -0.18182477     1794.4709      39.038415      0.339        
     34000   300.98283      0.069275631   -683.69732      39.06757       0.34         
     34100   300.31549      0.060043755   -592.58579      39.096725      0.341        
     34200   295.79615     -0.10847106     1070.5261      39.12588       0.342        
     34300   299.36452     -0.10718128     1057.797       39.155035      0.343        
     34400   301.68209     -0.033689165    332.48621      39.18419       0.344        
     34500   294.58198     -0.072138772    711.95432      39.213344      0.345        
     34600   302.3245      -0.1506793      1487.0891      39.242499      0.346        
     34700   301.34878      0.08729546    -861.53921      39.271654      0.347        
     34800   303.25479      0.015629922   -154.25534      39.300809      0.348        
     34900   304.11605      0.050272225   -496.14828      39.329964      0.349        
     35000   299.08814      0.33515788    -3307.7511      39.359119      0.35         
     35100   301.21372      0.31850337    -3143.3838      39.388274      0.351        
     35200   298.0251       0.13130355    -1295.8653      39.417429      0.352        
     35300   296.94308     -0.14180779     1399.534       39.446584      0.353        
     35400   298.48525      0.18646397    -1840.2563      39.475739      0.354        
     35500   302.88314      0.098761959   -974.70475      39.504893      0.355        
     35600   302.78013     -0.10100036     996.79608      39.534048      0.356        
     35700   297.56766     -0.30412319     3001.4625      39.563203      0.357        
     35800   303.87278      0.22588419    -2229.3036      39.592358      0.358        
     35900   297.97752      0.038746098   -382.39426      39.621513      0.359        
     36000   299.17033     -0.0074420989   73.447806      39.650668      0.36         
     36100   299.75259     -0.13446618     1327.078       39.679823      0.361        
     36200   303.77299      0.04227742    -417.2457       39.708978      0.362        
     36300   296.3074       0.17279295    -1705.3338      39.738133      0.363        
     36400   296.52164      0.11465049    -1131.5124      39.767288      0.364        
     36500   298.60692      0.21552753    -2127.0913      39.796442      0.365        
     36600   299.4644       0.035131222   -346.7182       39.825597      0.366        
     36700   298.89888      0.43637728    -4306.7089      39.854752      0.367        
     36800   301.03012     -0.04054016     400.10027      39.883907      0.368        
     36900   296.3446       0.15707837    -1550.243       39.913062      0.369        
     37000   297.86402     -0.14799091     1460.5567      39.942217      0.37         
     37100   299.39591      0.1782707     -1759.395       39.971372      0.371        
     37200   299.79942      0.0028454057  -28.081971      40.000527      0.372        
     37300   299.69079      0.068034      -671.44338      40.029682      0.373        
     37400   303.61611      0.11590956    -1143.9384      40.058837      0.374        
     37500   297.07955      0.1759531     -1736.5221      40.087991      0.375        
     37600   302.3824       0.18401971    -1816.1333      40.117146      0.376        
     37700   297.89933     -0.036479324    360.02294      40.146301      0.377        
     37800   301.61983     -0.049711803    490.61735      40.175456      0.378        
     37900   302.64891     -0.16415751     1620.1086      40.204611      0.379        
     38000   301.80558     -0.018772206    185.26727      40.233766      0.38         
     38100   297.15095      0.0038411903  -37.909601      40.262921      0.381        
     38200   297.99693      0.17947257    -1771.2566      40.292076      0.382        
     38300   301.02553      0.19090806    -1884.116       40.321231      0.383        
     38400   300.7713      -0.039922157    394.00105      40.350386      0.384        
     38500   297.20188      0.27453153    -2709.4156      40.379541      0.385        
     38600   294.64813     -0.011618201    114.66273      40.408695      0.386        
     38700   303.85273     -0.33382718     3294.6181      40.43785       0.387        
     38800   301.34701     -0.05803592     572.76999      40.467005      0.388        
     38900   301.80782      0.037675864   -371.83186      40.49616       0.389        
     39000   298.30192      0.13364445    -1318.9682      40.525315      0.39         
     39100   304.75806     -0.072174185    712.30382      40.55447       0.391        
     39200   293.85939      0.29921504    -2953.0228      40.583625      0.392        
     39300   299.44508      0.18750086    -1850.4896      40.61278       0.393        
     39400   300.67728      0.19000908    -1875.2438      40.641935      0.394        
     39500   300.9015       0.18072359    -1783.6032      40.67109       0.395        
     39600   299.98317     -0.0080764324   79.70819       40.700244      0.396        
     39700   297.90641      0.053553397   -528.53093      40.729399      0.397        
     39800   299.02617      0.054781582   -540.65218      40.758554      0.398        
     39900   303.72488      0.0011042723  -10.898321      40.787709      0.399        
     40000   303.18041      0.11023124    -1087.8977      40.816864      0.4          
     40100   294.95805      0.15507946    -1530.5153      40.846019      0.401        
     40200   296.36106     -0.11923678     1176.7756      40.875174      0.402        
     40300   297.75212     -0.073939088    729.72207      40.904329      0.403        
     40400   302.92083      0.11668243    -1151.5661      40.933484      0.404        
     40500   302.0325       0.21386827    -2110.7157      40.962639      0.405        
     40600   303.72554      0.37167958    -3668.1923      40.991793      0.406        
     40700   295.59383      0.42989402    -4242.7241      41.020948      0.407        
     40800   302.9113       0.099533853   -982.32276      41.050103      0.408        
     40900   296.521        0.061094314   -602.954        41.079258      0.409        
     41000   301.99066      0.22159695    -2186.9918      41.108413      0.41         
     41100   302.58749      0.28879912    -2850.2258      41.137568      0.411        
     41200   301.0657       0.19671153    -1941.3918      41.166723      0.412        
     41300   299.10155      0.32962821    -3253.1775      41.195878      0.413        
     41400   301.19219      0.36981556    -3649.7958      41.225033      0.414        
     41500   296.56416      0.1788464     -1765.0767      41.254188      0.415        
     41600   304.21415     -0.22135058     2184.5604      41.283343      0.416        
     41700   303.40885     -0.20721844     2045.087       41.312497      0.417        
     41800   296.37774      0.15788533    -1558.207       41.341652      0.418        
     41900   301.00301      0.065980843   -651.18029      41.370807      0.419        
     42000   296.16378     -0.03228987     318.67624      41.399962      0.42         
     42100   303.56238      0.12814903    -1264.7326      41.429117      0.421        
     42200   292.3611       0.011167527   -110.21493      41.458272      0.422        
     42300   307.70046     -0.11906163     1175.047       41.487427      0.423        
     42400   296.41571      0.10676286    -1053.6675      41.516582      0.424        
     42500   304.31852      0.10620574    -1048.1692      41.545737      0.425        
     42600   304.54657      0.27587369    -2722.6617      41.574892      0.426        
     42700   303.18097     -0.0016879261   16.658536      41.604046      0.427        
     42800   305.18476      0.24624838    -2430.2825      41.633201      0.428        
     42900   296.08325      0.022083601   -217.94819      41.662356      0.429        
     43000   306.81         0.054825273   -541.08337      41.691511      0.43         
     43100   299.33482      0.28714918    -2833.942       41.720666      0.431        
     43200   293.81618      0.28609968    -2823.5844      41.749821      0.432        
     43300   301.18199      0.38253476    -3775.3246      41.778976      0.433        
     43400   301.61036      0.22761126    -2246.3484      41.808131      0.434        
     43500   303.37852      0.037736265   -372.42798      41.837286      0.435        
     43600   298.40259      0.30808511    -3040.5636      41.866441      0.436        
     43700   301.83747      0.45175425    -4458.4678      41.895595      0.437        
     43800   302.04269      0.069806828   -688.93983      41.92475       0.438        
     43900   302.99703     -0.15323626     1512.3243      41.953905      0.439        
     44000   299.37284      0.24923982    -2459.8057      41.98306       0.44         
     44100   305.87841      0.16107109    -1589.648       42.012215      0.441        
     44200   300.8667      -0.26191509     2584.901       42.04137       0.442        
     44300   301.85908      0.29990731    -2959.855       42.070525      0.443        
     44400   300.06995      0.058162359   -574.01785      42.09968       0.444        
     44500   301.62259      0.20651256    -2038.1205      42.128835      0.445        
     44600   301.22832      0.20728675    -2045.7612      42.15799       0.446        
     44700   296.86998      0.30084052    -2969.0651      42.187145      0.447        
     44800   299.48925      0.2637452     -2602.9628      42.216299      0.448        
     44900   303.1242      -0.054119881    534.12169      42.245454      0.449        
     45000   298.36712     -0.0247171      243.93881      42.274609      0.45         
     45100   305.2224      -0.26887431     2653.5832      42.303764      0.451        
     45200   295.17244      0.010610517   -104.71766      42.332919      0.452        
     45300   298.00443      0.1921556     -1896.4283      42.362074      0.453        
     45400   297.58148     -0.0010582215   10.443834      42.391229      0.454        
     45500   292.35097      0.14282784    -1409.6012      42.420384      0.455        
     45600   300.28879      0.23466013    -2315.9154      42.449539      0.456        
     45700   300.23836      0.24725162    -2440.1838      42.478694      0.457        
     45800   300.95524      0.35683291    -3521.667       42.507848      0.458        
     45900   299.25303      0.46941118    -4632.7281      42.537003      0.459        
     46000   298.17075      0.40269946    -3974.3346      42.566158      0.46         
     46100   302.99879      0.55073591    -5435.3408      42.595313      0.461        
     46200   305.50497      0.5109972     -5043.1502      42.624468      0.462        
     46300   296.36389      0.17421424    -1719.3609      42.653623      0.463        
     46400   302.40731      0.15665071    -1546.0223      42.682778      0.464        
     46500   300.92429      0.094470272   -932.34909      42.711933      0.465        
     46600   294.185       -0.028630134    282.55745      42.741088      0.466        
     46700   300.39044      0.22678233    -2238.1675      42.770243      0.467        
     46800   296.02266      0.36333869    -3585.8741      42.799397      0.468        
     46900   300.36254      0.049737389   -490.86987      42.828552      0.469        
     47000   294.78496      0.20323205    -2005.7444      42.857707      0.47         
     47100   297.6285       0.085538905   -844.20336      42.886862      0.471        
     47200   299.56237      0.01183332    -116.78579      42.916017      0.472        
     47300   300.17039      0.10143838    -1001.119       42.945172      0.473        
     47400   298.39625      0.19924298    -1966.3754      42.974327      0.474        
     47500   298.43962      0.12152268    -1199.3356      43.003482      0.475        
     47600   298.65967      0.024280668   -239.63156      43.032637      0.476        
     47700   302.24232      0.15079742    -1488.2548      43.061792      0.477        
     47800   298.90491      0.18049937    -1781.3903      43.090946      0.478        
     47900   303.99385      0.11822413    -1166.7814      43.120101      0.479        
     48000   298.5647       0.30297663    -2990.1468      43.149256      0.48         
     48100   302.20855      0.066440429   -655.71605      43.178411      0.481        
     48200   300.44257      0.24731779    -2440.8368      43.207566      0.482        
     48300   300.86893      0.030607274   -302.07031      43.236721      0.483        
     48400   305.0895       0.030644295   -302.43568      43.265876      0.484        
     48500   300.03423      0.12920334    -1275.1379      43.295031      0.485        
     48600   302.53722     -0.0056642806   55.902103      43.324186      0.486        
     48700   294.6852      -0.040672092    401.40234      43.353341      0.487        
     48800   296.74673     -0.097239854    959.68275      43.382496      0.488        
     48900   299.47076      0.18144792    -1790.7518      43.41165       0.489        
     49000   294.90579     -0.05342815     527.29484      43.440805      0.49         
     49100   300.60078     -0.28726452     2835.0804      43.46996       0.491        
     49200   302.18503      0.33499552    -3306.1488      43.499115      0.492        
     49300   296.47691      0.12225668    -1206.5796      43.52827       0.493        
     49400   292.91007      0.049574603   -489.26329      43.557425      0.494        
     49500   303.6211       0.077555917   -765.41739      43.58658       0.495        
     49600   298.58799      0.011041591   -108.97203      43.615735      0.496        
     49700   298.42732      0.044890247   -443.03229      43.64489       0.497        
     49800   298.45151     -0.01380765     136.27091      43.674045      0.498        
     49900   292.46751      0.16998402    -1677.6119      43.703199      0.499        
     50000   298.18231      0.30373902    -2997.671       43.732354      0.5          
     50100   297.16072      0.30731507    -3032.9639      43.761509      0.501        
     50200   301.42601      0.068370977   -674.76908      43.790664      0.502        
     50300   293.4254       0.090220622   -890.40831      43.819819      0.503        
     50400   302.1111       0.07854999    -775.22812      43.848974      0.504        
     50500   304.1967       0.16238854    -1602.6502      43.878129      0.505        
     50600   299.84444     -0.10980367     1083.678       43.907284      0.506        
     50700   301.78438      0.29514955    -2912.8996      43.936439      0.507        
     50800   295.48432      0.34607098    -3415.455       43.965594      0.508        
     50900   298.88698      0.031958139   -315.40231      43.994748      0.509        
     51000   302.07959      0.2541279     -2508.0473      44.023903      0.51         
     51100   305.26995      0.064552153   -637.08022      44.053058      0.511        
     51200   300.79588      0.054721308   -540.05732      44.082213      0.512        
     51300   295.05732     -0.11157061     1101.1163      44.111368      0.513        
     51400   305.06084      0.098908658   -976.15256      44.140523      0.514        
     51500   298.44631      0.37661368    -3716.888       44.169678      0.515        
     51600   299.08924      0.38552249    -3804.8112      44.198833      0.516        
     51700   300.36634      0.17175699    -1695.1096      44.227988      0.517        
     51800   297.23689      0.22162964    -2187.3145      44.257143      0.518        
     51900   299.70069      0.39110066    -3859.8634      44.286298      0.519        
     52000   298.91983      0.27151418    -2679.6366      44.315452      0.52         
     52100   296.42742      0.13921322    -1373.9276      44.344607      0.521        
     52200   299.53186      0.082477488   -813.98952      44.373762      0.522        
     52300   299.35794      0.19869095    -1960.9272      44.402917      0.523        
     52400   298.70726      0.16997729    -1677.5454      44.432072      0.524        
     52500   303.05286      0.14580901    -1439.0231      44.461227      0.525        
     52600   295.00771      0.24389985    -2407.1043      44.490382      0.526        
     52700   297.07546      0.19726803    -1946.8841      44.519537      0.527        
     52800   301.64651      0.11562683    -1141.1481      44.548692      0.528        
     52900   297.80542      0.20207282    -1994.3037      44.577847      0.529        
     53000   301.2462       0.095853543   -946.00092      44.607001      0.53         
     53100   295.67512      0.21169801    -2089.2969      44.636156      0.531        
     53200   298.33973      0.25983642    -2564.3861      44.665311      0.532        
     53300   298.29986      0.28321917    -2795.1559      44.694466      0.533        
     53400   297.78261      0.30591306    -3019.1272      44.723621      0.534        
     53500   300.26357      0.18493387    -1825.1554      44.752776      0.535        
     53600   303.21246      0.12838575    -1267.0688      44.781931      0.536        
     53700   305.40612      0.049345195   -486.99921      44.811086      0.537        
     53800   300.89082      0.45188683    -4459.7763      44.840241      0.538        
     53900   302.932        0.14783239    -1458.9922      44.869396      0.539        
     54000   302.81649      0.31741893    -3132.6813      44.89855       0.54         
     54100   304.81574     -0.18650994     1840.71        44.927705      0.541        
     54200   298.43952     -0.16127872     1591.6972      44.95686       0.542        
     54300   298.20842      0.09940904    -981.09095      44.986015      0.543        
     54400   302.36474      0.20164285    -1990.0602      45.01517       0.544        
     54500   299.65075      0.13200395    -1302.7777      45.044325      0.545        
     54600   296.83973      0.12237507    -1207.748       45.07348       0.546        
     54700   302.60797      0.45841495    -4524.2038      45.102635      0.547        
     54800   302.60971      0.18848235    -1860.1762      45.13179       0.548        
     54900   295.07824      0.18870956    -1862.4186      45.160945      0.549        
     55000   301.5581       0.15233905    -1503.4695      45.1901        0.55         
     55100   298.02737     -0.24711938     2438.8787      45.219254      0.551        
     55200   303.67427     -0.063420596    625.91262      45.248409      0.552        
     55300   298.43276      0.31673553    -3125.9367      45.277564      0.553        
     55400   296.31395     -0.091246723    900.53514      45.306719      0.554        
     55500   300.13176      0.0098877392  -97.584399      45.335874      0.555        
     55600   301.86878      0.20470211    -2020.2527      45.365029      0.556        
     55700   300.40231      0.037577922   -370.86526      45.394184      0.557        
     55800   302.83965      0.21248978    -2097.111       45.423339      0.558        
     55900   301.77821      0.2115248     -2087.5875      45.452494      0.559        
     56000   304.7264       0.21739345    -2145.5066      45.481649      0.56         
     56100   292.75448      0.085448849   -843.31457      45.510803      0.561        
     56200   302.49409      0.27333614    -2697.618       45.539958      0.562        
     56300   300.94815     -0.22478606     2218.4659      45.569113      0.563        
     56400   301.08393     -0.043572711    430.02922      45.598268      0.564        
     56500   296.76241      0.10198805    -1006.5438      45.627423      0.565        
     56600   304.3919       0.12772213    -1260.5194      45.656578      0.566        
     56700   301.95863     -0.088855086    876.93152      45.685733      0.567        
     56800   298.92645      0.15084628    -1488.737       45.714888      0.568        
     56900   300.52957      0.031704496   -312.89905      45.744043      0.569        
     57000   302.24279     -0.05248222     517.95924      45.773198      0.57         
     57100   302.97761      0.21060985    -2078.5576      45.802352      0.571        
     57200   302.10616     -0.18132435     1789.5322      45.831507      0.572        
     57300   299.01282     -0.11214951     1106.8296      45.860662      0.573        
     57400   299.68993      0.13698912    -1351.9775      45.889817      0.574        
     57500   304.40589     -0.15068211     1487.1168      45.918972      0.575        
     57600   299.49369      0.033674072   -332.33725      45.948127      0.576        
     57700   299.50668      0.12112782    -1195.4386      45.977282      0.577        
     57800   303.94508     -0.015524389    153.21381      46.006437      0.578        
     57900   305.52671      0.18997065    -1874.8645      46.035592      0.579        
     58000   298.78125      0.48970071    -4832.9702      46.064747      0.58         
     58100   303.53601      0.10894127    -1075.1668      46.093901      0.581        
     58200   296.5004       0.040003679   -394.80561      46.123056      0.582        
     58300   302.42716      0.3481433     -3435.9072      46.152211      0.583        
     58400   298.4511       0.074033045   -730.64934      46.181366      0.584        
     58500   297.73183      0.19945823    -1968.4996      46.210521      0.585        
     58600   302.76844      0.064324448   -634.83294      46.239676      0.586        
     58700   303.19039     -0.0021589955   21.307629      46.268831      0.587        
     58800   300.50938      0.33020582    -3258.8781      46.297986      0.588        
     58900   303.68143      0.080230591   -791.81437      46.327141      0.589        
     59000   298.73425      0.15444989    -1524.3019      46.356296      0.59         
     59100   299.43558      0.43970033    -4339.5049      46.385451      0.591        
     59200   294.75763      0.19286591    -1903.4386      46.414605      0.592        
     59300   298.83482     -0.099282289    979.84001      46.44376       0.593        
     59400   300.75366     -0.043109616    425.45883      46.472915      0.594        
     59500   299.02149     -0.1840932      1816.8586      46.50207       0.595        
     59600   301.33888      0.29467442    -2908.2105      46.531225      0.596        
     59700   299.23233      0.039872589   -393.51186      46.56038       0.597        
     59800   298.09801      0.26301739    -2595.7798      46.589535      0.598        
     59900   296.73799      0.082585407   -815.05459      46.61869       0.599        
     60000   294.41241     -0.056517186    557.78125      46.647845      0.6          
     60100   294.44259     -0.068534117    676.37915      46.677         0.601        
     60200   300.02667     -0.024258102    239.40885      46.706154      0.602        
     60300   306.49587      0.31384736    -3097.4327      46.735309      0.603        
     60400   301.16154      0.048495871   -478.61703      46.764464      0.604        
     60500   297.36112     -0.058977033    582.05806      46.793619      0.605        
     60600   302.44562      0.53771352    -5306.8198      46.822774      0.606        
     60700   298.57977      0.38031906    -3753.4573      46.851929      0.607        
     60800   298.85191      0.20488772    -2022.0846      46.881084      0.608        
     60900   308.05071      0.17215134    -1699.0017      46.910239      0.609        
     61000   299.65586      0.53921254    -5321.614       46.939394      0.61         
     61100   298.33755      0.0086867294  -85.731353      46.968549      0.611        
     61200   300.5339       0.024161827   -238.45869      46.997703      0.612        
     61300   302.83192      0.25997702    -2565.7737      47.026858      0.613        
     61400   304.64093     -0.19548112     1929.2486      47.056013      0.614        
     61500   295.10194      0.0053259595  -52.563133      47.085168      0.615        
     61600   301.63808      0.29311848    -2892.8545      47.114323      0.616        
     61700   294.77783      0.2282406     -2252.5595      47.143478      0.617        
     61800   299.45798      0.10191695    -1005.8421      47.172633      0.618        
     61900   297.88062      0.2412388     -2380.8418      47.201788      0.619        
     62000   301.17176      0.12415111    -1225.2762      47.230943      0.62         
     62100   301.64829     -0.05870769     579.39985      47.260098      0.621        
     62200   300.84818     -0.021521845    212.40409      47.289253      0.622        
     62300   296.01349      0.054468301   -537.56034      47.318407      0.623        
     62400   299.0042      -0.14788824     1459.5434      47.347562      0.624        
     62500   301.5226       0.18199928    -1796.1932      47.376717      0.625        
     62600   297.7287       0.079694146   -786.52007      47.405872      0.626        
     62700   297.72786      0.068235718   -673.43417      47.435027      0.627        
     62800   307.86045     -0.011502468    113.52053      47.464182      0.628        
     62900   298.64474      0.0079282815  -78.246055      47.493337      0.629        
     63000   294.86964      0.33402704    -3296.5905      47.522492      0.63         
     63100   297.21315      0.47061908    -4644.6492      47.551647      0.631        
     63200   301.14771     -0.065733044    648.7347       47.580802      0.632        
     63300   298.22302      0.079869354   -788.24924      47.609956      0.633        
     63400   300.78385     -0.08432102     832.18376      47.639111      0.634        
     63500   299.25227      0.086084094   -849.58395      47.668266      0.635        
     63600   301.77342      0.11933734    -1177.7679      47.697421      0.636        
     63700   305.36902     -0.11583516     1143.2042      47.726576      0.637        
     63800   307.01948      0.16632134    -1641.464       47.755731      0.638        
     63900   298.32596      0.1147326     -1132.3227      47.784886      0.639        
     64000   302.83353     -0.013807751    136.27191      47.814041      0.64         
     64100   299.21486      0.35213347    -3475.2871      47.843196      0.641        
     64200   301.66787      0.12383017    -1222.1088      47.872351      0.642        
     64300   302.98052     -0.032757794    323.29429      47.901505      0.643        
     64400   294.23943      0.09298914    -917.73146      47.93066       0.644        
     64500   301.68494      0.14880261    -1468.5676      47.959815      0.645        
     64600   299.19223     -0.026673691    263.24886      47.98897       0.646        
     64700   301.13461      0.30381446    -2998.4156      48.018125      0.647        
     64800   296.40233      0.077628984   -766.13851      48.04728       0.648        
     64900   297.6438       0.3207496     -3165.5524      48.076435      0.649        
     65000   293.58698      0.14636779    -1444.5378      48.10559       0.65         
     65100   303.85648      0.47895688    -4726.9369      48.134745      0.651        
     65200   301.41725     -0.0080316949   79.266665      48.1639        0.652        
     65300   296.8347       0.14290501    -1410.3628      48.193055      0.653        
     65400   299.03591      0.35714459    -3524.743       48.222209      0.654        
     65500   302.50264     -0.17490938     1726.2214      48.251364      0.655        
     65600   300.2386       0.28682069    -2830.7001      48.280519      0.656        
     65700   304.36973      0.049816851   -491.65409      48.309674      0.657        
     65800   298.30711     -0.19966007     1970.4917      48.338829      0.658        
     65900   297.1844       0.039507805   -389.91172      48.367984      0.659        
     66000   302.08271      0.0060782654  -59.987815      48.397139      0.66         
     66100   296.19678      0.11762708    -1160.889       48.426294      0.661        
     66200   302.47294      0.1549499     -1529.2366      48.455449      0.662        
     66300   300.74204     -0.099008691    977.1398       48.484604      0.663        
     66400   301.77136      0.11407041    -1125.7874      48.513758      0.664        
     66500   299.24797      0.36624421    -3614.5494      48.542913      0.665        
     66600   300.0277       0.37163957    -3667.7974      48.572068      0.666        
     66700   294.78485      0.061263543   -604.62416      48.601223      0.667        
     66800   305.98947      0.063029408   -622.05189      48.630378      0.668        
     66900   299.92548     -0.15557094     1535.3658      48.659533      0.669        
     67000   301.95642      0.34751449    -3429.7013      48.688688      0.67         
     67100   296.26131      0.23799082    -2348.7868      48.717843      0.671        
     67200   301.41871      0.094451408   -932.16292      48.746998      0.672        
     67300   303.04294      0.25381581    -2504.9673      48.776153      0.673        
     67400   302.03332      0.35135685    -3467.6225      48.805307      0.674        
     67500   302.01901      0.19003179    -1875.4679      48.834462      0.675        
     67600   300.94016     -0.00016804869  1.6585116      48.863617      0.676        
     67700   299.49961     -0.10891902     1074.9471      48.892772      0.677        
     67800   309.5619      -0.04364667     430.75914      48.921927      0.678        
     67900   298.88872     -0.20620287     2035.0641      48.951082      0.679        
     68000   300.92102      0.20784392    -2051.26        48.980237      0.68         
     68100   299.8267       0.20652946    -2038.2873      49.009392      0.681        
     68200   308.67845      0.091832446   -906.31577      49.038547      0.682        
     68300   301.66662      0.28529486    -2815.6413      49.067702      0.683        
     68400   298.85736      0.35567348    -3510.2243      49.096856      0.684        
     68500   296.15917     -0.020580083    203.10962      49.126011      0.685        
     68600   296.31268      0.39037281    -3852.6801      49.155166      0.686        
     68700   295.32129      0.0054490293  -53.777738      49.184321      0.687        
     68800   298.88631     -0.029271016    288.88247      49.213476      0.688        
     68900   302.65461      0.23076193    -2277.4431      49.242631      0.689        
     69000   295.52349      0.16698003    -1647.9648      49.271786      0.69         
     69100   300.34959     -0.2785894      2749.4636      49.300941      0.691        
     69200   303.30971      0.20222209    -1995.7769      49.330096      0.692        
     69300   298.39964      0.18871299    -1862.4524      49.359251      0.693        
     69400   302.35778     -0.16434073     1621.9169      49.388406      0.694        
     69500   301.47491      0.20141407    -1987.8023      49.41756       0.695        
     69600   303.73506      0.024881858   -245.56484      49.446715      0.696        
     69700   299.58443     -0.090258021    890.77741      49.47587       0.697        
     69800   299.18369     -0.032828538    323.99248      49.505025      0.698        
     69900   298.91063      0.064742243   -638.95626      49.53418       0.699        
     70000   297.12121      0.19827773    -1956.8491      49.563335      0.7          
     70100   305.82386      0.37213828    -3672.7193      49.59249       0.701        
     70200   298.81883     -0.09989165     985.85393      49.621645      0.702        
     70300   294.27834     -0.18263702     1802.4872      49.6508        0.703        
     70400   299.38053      0.23276115    -2297.1739      49.679955      0.704        
     70500   298.15811      0.27477961    -2711.8639      49.709109      0.705        
     70600   302.40593     -0.031553405    311.40789      49.738264      0.706        
     70700   295.21426      0.19270722    -1901.8724      49.767419      0.707        
     70800   300.26629      0.087563041   -864.18003      49.796574      0.708        
     70900   305.29813      0.19007497    -1875.8941      49.825729      0.709        
     71000   294.90535      0.59655678    -5887.5576      49.854884      0.71         
     71100   298.77566      0.053536324   -528.36244      49.884039      0.711        
     71200   302.90784      0.4624378     -4563.9063      49.913194      0.712        
     71300   300.28698      0.44562473    -4397.9742      49.942349      0.713        
     71400   299.16624     -0.1644503      1622.9983      49.971504      0.714        
     71500   303.39839     -0.19431171     1917.7075      50.000658      0.715        
     71600   300.00215      0.17059425    -1683.6343      50.029813      0.716        
     71700   298.55363     -0.090168463    889.89354      50.058968      0.717        
     71800   306.12025      0.08603032    -849.05324      50.088123      0.718        
     71900   303.23695      0.11434249    -1128.4726      50.117278      0.719        
     72000   307.76686      0.071907617   -709.673        50.146433      0.72         
     72100   299.32833      0.21803206    -2151.8091      50.175588      0.721        
     72200   300.51999      0.31201515    -3079.3501      50.204743      0.722        
     72300   299.09288     -0.039162081    386.49969      50.233898      0.723        
     72400   300.53696     -0.017303392    170.7712       50.263053      0.724        
     72500   303.4494       0.040019822   -394.96494      50.292208      0.725        
     72600   301.0456      -0.2151383      2123.25        50.321362      0.726        
     72700   298.07437     -0.073881312    729.15186      50.350517      0.727        
     72800   303.03293      0.17391159    -1716.374       50.379672      0.728        
     72900   303.2096       0.21608539    -2132.597       50.408827      0.729        
     73000   299.82847      0.14219959    -1403.4008      50.437982      0.73         
     73100   294.83218      0.14769223    -1457.6089      50.467137      0.731        
     73200   304.80962      0.2748502     -2712.5606      50.496292      0.732        
     73300   304.8274      -0.26005008     2566.4947      50.525447      0.733        
     73400   303.25142     -0.050781247    501.17194      50.554602      0.734        
     73500   301.16895      0.24734268    -2441.0825      50.583757      0.735        
     73600   297.59821     -0.14767956     1457.484       50.612911      0.736        
     73700   302.41412      0.38440589    -3793.7911      50.642066      0.737        
     73800   298.80071      0.3119329     -3078.5384      50.671221      0.738        
     73900   298.01402      0.37593473    -3710.1873      50.700376      0.739        
     74000   297.62675     -0.026624643    262.76479      50.729531      0.74         
     74100   298.04826      0.23337819    -2303.2636      50.758686      0.741        
     74200   291.21323      0.16902848    -1668.1814      50.787841      0.742        
     74300   302.18227      0.31563696    -3115.0946      50.816996      0.743        
     74400   296.38742      0.29411346    -2902.6742      50.846151      0.744        
     74500   302.0095      -0.34823682     3436.8302      50.875306      0.745        
     74600   301.90314     -0.58059445     5730.0217      50.90446       0.746        
     74700   302.45993     -0.19174295     1892.3558      50.933615      0.747        
     74800   303.16386     -0.17039132     1681.6316      50.96277       0.748        
     74900   298.84751     -0.13731259     1355.1699      50.991925      0.749        
     75000   305.67297      0.34243862    -3379.6064      51.02108       0.75         
     75100   301.57428      0.25336692    -2500.5371      51.050235      0.751        
     75200   304.73074      0.24621108    -2429.9144      51.07939       0.752        
     75300   292.65917      0.25144426    -2481.5619      51.108545      0.753        
     75400   300.08955     -0.11672525     1151.9887      51.1377        0.754        
     75500   303.26119      0.33058371    -3262.6076      51.166855      0.755        
     75600   298.47607     -0.020437755    201.70496      51.19601       0.756        
     75700   306.8988      -0.03328313     328.47896      51.225164      0.757        
     75800   302.04614      0.21936701    -2164.9841      51.254319      0.758        
     75900   302.87722      0.2821502     -2784.606       51.283474      0.759        
     76000   297.62521      0.52184825    -5150.2418      51.312629      0.76         
     76100   301.99123      0.16751405    -1653.2351      51.341784      0.761        
     76200   304.92006      0.2550083     -2516.7362      51.370939      0.762        
     76300   299.31192      0.14697822    -1450.5622      51.400094      0.763        
     76400   297.83657      0.28366207    -2799.527       51.429249      0.764        
     76500   303.75142      0.16663576    -1644.5671      51.458404      0.765        
     76600   301.2074       0.1409507     -1391.0753      51.487559      0.766        
     76700   299.62164      0.39696069    -3917.6975      51.516713      0.767        
     76800   302.71701      0.079034227   -780.00717      51.545868      0.768        
     76900   296.10006      0.073208925   -722.51591      51.575023      0.769        
     77000   300.11624     -0.037811497    373.17046      51.604178      0.77         
     77100   302.30301      0.096865815   -955.99127      51.633333      0.771        
     77200   296.59108     -0.10776003     1063.5088      51.662488      0.772        
     77300   303.23549      0.3799345     -3749.6619      51.691643      0.773        
     77400   304.12108      0.30682354    -3028.1129      51.720798      0.774        
     77500   295.47801     -0.061380733    605.78074      51.749953      0.775        
     77600   296.95218      0.037167767   -366.81734      51.779108      0.776        
     77700   298.23712      0.60503603    -5971.2413      51.808262      0.777        
     77800   300.64982      0.21882849    -2159.6693      51.837417      0.778        
     77900   297.26094      0.28150557    -2778.2439      51.866572      0.779        
     78000   292.55477      0.31833828    -3141.7545      51.895727      0.78         
     78100   296.90971      0.040743837   -402.1104       51.924882      0.781        
     78200   295.99249      0.21515317    -2123.3967      51.954037      0.782        
     78300   298.09461      0.076504421   -755.03993      51.983192      0.783        
     78400   300.35265      0.19166476    -1891.5841      52.012347      0.784        
     78500   298.0379       0.0040474156  -39.944886      52.041502      0.785        
     78600   303.347       -0.0015624409   15.420092      52.070657      0.786        
     78700   309.61267     -0.10410988     1027.4846      52.099811      0.787        
     78800   304.54595      0.04934974    -487.04407      52.128966      0.788        
     78900   296.11774      0.10409139    -1027.3021      52.158121      0.789        
     79000   296.83565      0.094843532   -936.03289      52.187276      0.79         
     79100   298.35284     -0.0003305785   3.2625562      52.216431      0.791        
     79200   299.39744     -0.091737618    905.3799       52.245586      0.792        
     79300   300.10763      0.16369749    -1615.5687      52.274741      0.793        
     79400   298.76673      0.17075345    -1685.2056      52.303896      0.794        
     79500   296.75589      0.27953162    -2758.7626      52.333051      0.795        
     79600   301.55204     -0.0019315475   19.062892      52.362206      0.796        
     79700   302.06055     -0.03865145     381.46015      52.391361      0.797        
     79800   304.32541      0.12807186    -1263.9709      52.420515      0.798        
     79900   298.76195      0.033579891   -331.40776      52.44967       0.799        
     80000   299.10768      0.1568212     -1547.7049      52.478825      0.8          
     80100   301.45503      0.19804819    -1954.5837      52.50798       0.801        
     80200   296.89634     -0.31974665     3155.6541      52.537135      0.802        
     80300   306.26373     -0.33788518     3334.6675      52.56629       0.803        
     80400   295.98705      0.12194493    -1203.5029      52.595445      0.804        
     80500   296.36307      0.38551122    -3804.6999      52.6246        0.805        
     80600   299.48601      0.1360225     -1342.4377      52.653755      0.806        
     80700   300.79578      0.19961305    -1970.0276      52.68291       0.807        
     80800   301.63641      0.22628273    -2233.2369      52.712064      0.808        
     80900   303.70966     -0.070346036    694.2614       52.741219      0.809        
     81000   301.50769      0.15096683    -1489.9268      52.770374      0.81         
     81100   298.04071      0.13840512    -1365.9523      52.799529      0.811        
     81200   291.53167      0.015437406   -152.35535      52.828684      0.812        
     81300   302.30685      0.083997934   -828.99515      52.857839      0.813        
     81400   302.66577      0.22103543    -2181.4501      52.886994      0.814        
     81500   300.51035      0.17007095    -1678.4697      52.916149      0.815        
     81600   303.04277      0.076993879   -759.8705       52.945304      0.816        
     81700   303.6574      -0.35826687     3535.8191      52.974459      0.817        
     81800   301.20633     -0.1044144      1030.49        53.003613      0.818        
     81900   302.72711      0.046233581   -456.28997      53.032768      0.819        
     82000   301.88801     -0.34783302     3432.845       53.061923      0.82         
     82100   297.23199      0.05915473    -583.81179      53.091078      0.821        
     82200   303.47042      0.18109579    -1787.2765      53.120233      0.822        
     82300   299.96965      0.17414401    -1718.6677      53.149388      0.823        
     82400   297.28116      0.081902788   -808.31767      53.178543      0.824        
     82500   295.58463      0.43752422    -4318.0283      53.207698      0.825        
     82600   296.18575      0.099706777   -984.02938      53.236853      0.826        
     82700   298.22315      0.2040602     -2013.9176      53.266008      0.827        
     82800   294.86129      0.25085239    -2475.7206      53.295163      0.828        
     82900   304.46709     -0.062824688    620.03146      53.324317      0.829        
     83000   298.05441      0.016232999   -160.20725      53.353472      0.83         
     83100   304.65947      0.19432742    -1917.8626      53.382627      0.831        
     83200   303.29236      0.00084537612 -8.3432136      53.411782      0.832        
     83300   300.0893       0.19043366    -1879.4341      53.440937      0.833        
     83400   297.6428       0.15959291    -1575.0595      53.470092      0.834        
     83500   295.55902      0.049386981   -487.4116       53.499247      0.835        
     83600   300.00231     -0.2449246      2417.2179      53.528402      0.836        
     83700   300.304        0.18688816    -1844.4427      53.557557      0.837        
     83800   297.78848      0.36190069    -3571.6821      53.586712      0.838        
     83900   296.62655      0.18940242    -1869.2565      53.615866      0.839        
     84000   297.61417      0.14117477    -1393.2867      53.645021      0.84         
     84100   301.65846      0.093726967   -925.01324      53.674176      0.841        
     84200   300.39559      0.39356125    -3884.1475      53.703331      0.842        
     84300   293.97871      0.48511908    -4787.753       53.732486      0.843        
     84400   302.19002     -0.11055972     1091.1396      53.761641      0.844        
     84500   303.23004     -0.023197853    228.94501      53.790796      0.845        
     84600   295.27806      0.22580866    -2228.5582      53.819951      0.846        
     84700   298.66009      0.042172291   -416.20815      53.849106      0.847        
     84800   302.29397      0.016644866   -164.27205      53.878261      0.848        
     84900   299.5916       0.13745307    -1356.5564      53.907415      0.849        
     85000   302.93503      0.43880655    -4330.6839      53.93657       0.85         
     85100   303.42179      0.23397606    -2309.1642      53.965725      0.851        
     85200   291.22541      0.1509026     -1489.2929      53.99488       0.852        
     85300   300.12719      0.31728631    -3131.3724      54.024035      0.853        
     85400   302.43853      0.10948839    -1080.5664      54.05319       0.854        
     85500   296.76305     -0.28425734     2805.4018      54.082345      0.855        
     85600   299.85928     -0.09304884     918.32065      54.1115        0.856        
     85700   297.38354     -0.11412832     1126.3589      54.140655      0.857        
     85800   309.21467      0.27083956    -2672.9787      54.16981       0.858        
     85900   300.06476      0.33450505    -3301.3081      54.198965      0.859        
     86000   300.42532      0.082462737   -813.84394      54.228119      0.86         
     86100   302.31412      0.25877092    -2553.8704      54.257274      0.861        
     86200   297.30114      0.067035485   -661.5888       54.286429      0.862        
     86300   300.00942     -0.16885807     1666.4996      54.315584      0.863        
     86400   297.68569      0.068112613   -672.21922      54.344739      0.864        
     86500   297.01764      0.30455716    -3005.7455      54.373894      0.865        
     86600   305.01749      0.44100722    -4352.4028      54.403049      0.866        
     86700   296.80304      0.34620586    -3416.7862      54.432204      0.867        
     86800   299.25116     -0.068506842    676.10997      54.461359      0.868        
     86900   296.72858     -0.03615138     356.78638      54.490514      0.869        
     87000   301.1429       0.057035116   -562.89283      54.519668      0.87         
     87100   297.97789     -0.00081255779  8.0193219      54.548823      0.871        
     87200   295.65519      0.15149351    -1495.1247      54.577978      0.872        
     87300   302.77752      0.52612097    -5192.4103      54.607133      0.873        
     87400   295.1701       0.25860774    -2552.26        54.636288      0.874        
     87500   299.59322     -0.035684247    352.17614      54.665443      0.875        
     87600   297.23795      0.01265669    -124.91182      54.694598      0.876        
     87700   298.54855      0.25366385    -2503.4676      54.723753      0.877        
     87800   301.85939     -0.15621845     1541.7562      54.752908      0.878        
     87900   297.73168      0.33981883    -3353.7511      54.782063      0.879        
     88000   301.758        0.21838656    -2155.3077      54.811217      0.88         
     88100   299.76124      0.071259085   -703.27249      54.840372      0.881        
     88200   292.66749      0.26030014    -2568.9626      54.869527      0.882        
     88300   297.34656      0.20789603    -2051.7743      54.898682      0.883        
     88400   295.89369      0.41579373    -4103.5651      54.927837      0.884        
     88500   302.08234      0.14088429    -1390.4199      54.956992      0.885        
     88600   296.64037      0.22336667    -2204.4576      54.986147      0.886        
     88700   298.19975      0.12896952    -1272.8302      55.015302      0.887        
     88800   294.09611      0.18597554    -1835.4358      55.044457      0.888        
     88900   308.72717     -0.22650073     2235.3884      55.073612      0.889        
     89000   297.27463     -0.19521946     1926.6662      55.102766      0.89         
[...]
    978600   301.89714     -0.042658228    421.00398      314.46478      9.786        
    978700   300.48348     -0.02712496     267.70254      314.49394      9.787        
    978800   298.77528     -0.0051253049   50.582826      314.52309      9.788        
    978900   300.39307     -0.001174629    11.592687      314.55225      9.789        
    979000   302.56196     -0.0041679285   41.134256      314.5814       9.79         
    979100   302.5126      -0.0028686601   28.311474      314.61056      9.791        
    979200   301.68966     -0.0047908213   47.28173       314.63971      9.792        
    979300   301.63359     -0.040273018    397.46378      314.66887      9.793        
    979400   305.11305     -0.0016038285   15.828556      314.69802      9.794        
    979500   298.01117      0.0099259581  -97.96159       314.72718      9.795        
    979600   306.3519       0.010387218   -102.51388      314.75633      9.796        
    979700   299.43522     -0.004243517    41.880256      314.78549      9.797        
    979800   298.15774     -0.037540153    370.49251      314.81464      9.798        
    979900   300.87527     -0.0083473287   82.381729      314.8438       9.799        
    980000   296.59443      0.060074352   -592.88775      314.87295      9.8          
    980100   298.48847     -0.02223385     219.43104      314.90211      9.801        
    980200   303.47657     -0.013572846    133.95358      314.93126      9.802        
    980300   299.348       -0.0098599142   97.309787      314.96042      9.803        
    980400   302.40412     -0.021771805    214.87101      314.98957      9.804        
    980500   295.01321     -0.034775138    343.20393      315.01873      9.805        
    980600   296.95946     -0.0084224069   83.122693      315.04788      9.806        
    980700   301.18597      0.0011468233  -11.318266      315.07704      9.807        
    980800   296.73277      0.03742134    -369.31991      315.10619      9.808        
    980900   299.22966      0.072192774   -712.48728      315.13535      9.809        
    981000   302.62837     -0.014428415    142.39739      315.1645       9.81         
    981100   296.74452     -0.0054904401   54.186431      315.19366      9.811        
    981200   293.49363      0.061218352   -604.17816      315.22281      9.812        
    981300   299.83661      0.022566416   -222.71321      315.25197      9.813        
    981400   299.27388      0.039910746   -393.88844      315.28112      9.814        
    981500   295.8898      -0.044836237    442.49926      315.31027      9.815        
    981600   304.88856      0.0051165537  -50.496459      315.33943      9.816        
    981700   301.57737      0.03177701    -313.61471      315.36858      9.817        
    981800   298.38784     -0.055868365    551.3779       315.39774      9.818        
    981900   307.26413      0.0073230122  -72.272511      315.42689      9.819        
    982000   300.29796      0.016607363   -163.90193      315.45605      9.82         
    982100   301.7856      -0.022039172    217.50972      315.4852       9.821        
    982200   303.69629     -0.053069785    523.75805      315.51436      9.822        
    982300   298.39341      0.0022777444  -22.479589      315.54351      9.823        
    982400   302.9434      -0.010624887    104.85948      315.57267      9.824        
    982500   302.83714     -0.029201143    288.19288      315.60182      9.825        
    982600   305.37016      0.022338016   -220.45907      315.63098      9.826        
    982700   293.93178      0.004392751   -43.353082      315.66013      9.827        
    982800   298.18806      0.031609439   -311.96091      315.68929      9.828        
    982900   299.21156      0.0022820482  -22.522065      315.71844      9.829        
    983000   301.03929     -0.047674049    470.50629      315.7476       9.83         
    983100   297.84451     -0.058424953    576.60945      315.77675      9.831        
    983200   295.36857     -0.013542918    133.65821      315.80591      9.832        
    983300   303.69966      0.058140534   -573.80246      315.83506      9.833        
    983400   302.80061      0.0031048139  -30.64213       315.86422      9.834        
    983500   295.22866     -0.0074244521   73.273645      315.89337      9.835        
    983600   300.41029     -0.041135557    405.97638      315.92253      9.836        
    983700   304.30649      0.0037267288  -36.779954      315.95168      9.837        
    983800   304.55488      0.044686226   -441.01876      315.98084      9.838        
    983900   294.14354     -0.030929359    305.24904      316.00999      9.839        
    984000   297.54653     -0.0025225402   24.895536      316.03915      9.84         
    984100   299.96199     -0.016598295    163.81244      316.0683       9.841        
    984200   300.64565     -0.026155723    258.13691      316.09746      9.842        
    984300   307.33568      0.043345679   -427.78859      316.12661      9.843        
    984400   295.43392      0.080165937   -791.17628      316.15577      9.844        
    984500   298.57085      0.0072984088  -72.029695      316.18492      9.845        
    984600   300.29456     -0.018564028    183.21271      316.21408      9.846        
    984700   302.354       -0.0062954444   62.131205      316.24323      9.847        
    984800   298.51017     -0.0060335745   59.546751      316.27239      9.848        
    984900   300.46917      0.0023460457  -23.153671      316.30154      9.849        
    985000   297.9303      -0.020586661    203.17454      316.3307       9.85         
    985100   300.32457     -0.0089117625   87.952258      316.35985      9.851        
    985200   298.27197      0.02083197    -205.59556      316.38901      9.852        
    985300   301.98726      0.034427647   -339.77446      316.41816      9.853        
    985400   305.34405     -0.029232995    288.50723      316.44732      9.854        
    985500   303.52354     -0.084583456    834.77381      316.47647      9.855        
    985600   297.66624      0.054132682   -534.24804      316.50563      9.856        
    985700   296.88649      0.01366165    -134.83         316.53478      9.857        
    985800   297.30082     -0.03183048     314.14241      316.56394      9.858        
    985900   296.10364      0.013325199   -131.50949      316.59309      9.859        
    986000   300.37739      0.026793952   -264.43574      316.62225      9.86         
    986100   298.21797     -0.0031764444   31.349068      316.6514       9.861        
    986200   300.75598     -0.045161208    445.70647      316.68056      9.862        
    986300   302.03923      0.056145815   -554.11611      316.70971      9.863        
    986400   302.61191      0.0078210042  -77.18731       316.73887      9.864        
    986500   303.88719     -0.029571799    291.85096      316.76802      9.865        
    986600   299.74206      0.0055157983  -54.436697      316.79717      9.866        
    986700   302.30366      0.0087866558  -86.71755       316.82633      9.867        
    986800   302.04549      0.0003366986  -3.3229568      316.85548      9.868        
    986900   298.72414     -0.023772648    234.6178       316.88464      9.869        
    987000   299.65958     -0.013087016    129.1588       316.91379      9.87         
    987100   302.29733     -0.053578566    528.77933      316.94295      9.871        
    987200   295.8238      -0.028531831    281.58728      316.9721       9.872        
    987300   299.83169     -0.0050905005   50.239334      317.00126      9.873        
    987400   293.4368       0.026786955   -264.36669      317.03041      9.874        
    987500   301.05895     -0.0041522252   40.979277      317.05957      9.875        
    987600   299.81211     -0.018628517    183.84917      317.08872      9.876        
    987700   300.433       -0.0097921844   96.641346      317.11788      9.877        
    987800   298.76986      0.0092336403  -91.128944      317.14703      9.878        
    987900   297.11871      0.029707167   -293.18694      317.17619      9.879        
    988000   298.67474     -0.012983551    128.13768      317.20534      9.88         
    988100   300.1231      -0.021598477    213.16039      317.2345       9.881        
    988200   302.15909      0.0065595843  -64.738064      317.26365      9.882        
    988300   301.04682     -0.02151657     212.35204      317.29281      9.883        
    988400   302.11369      0.022516653   -222.22209      317.32196      9.884        
    988500   298.86895      0.027834428   -274.70445      317.35112      9.885        
    988600   301.03066      0.024748169   -244.24544      317.38027      9.886        
    988700   297.77797     -0.042672938    421.14915      317.40943      9.887        
    988800   299.11792     -0.026386563    260.41513      317.43858      9.888        
    988900   305.15833     -0.0379351      374.39033      317.46774      9.889        
    989000   296.13811     -0.031438241    310.27131      317.49689      9.89         
    989100   300.00466      0.0092191917  -90.986348      317.52605      9.891        
    989200   301.75202      0.0059198838  -58.424711      317.5552       9.892        
    989300   301.64552      0.012526091   -123.62291      317.58436      9.893        
    989400   297.59609      0.021727598   -214.43472      317.61351      9.894        
    989500   300.06805     -0.01970127     194.43642      317.64267      9.895        
    989600   293.66315     -0.0062610865   61.792119      317.67182      9.896        
    989700   298.25404      0.046684677   -460.74194      317.70098      9.897        
    989800   303.25084      0.044497235   -439.15357      317.73013      9.898        
    989900   301.15128     -0.0016428891   16.214055      317.75929      9.899        
    990000   288.80455      0.034534277   -340.82682      317.78844      9.9          
    990100   301.97733     -0.020459043    201.91505      317.8176       9.901        
    990200   305.18336     -0.0062662401   61.842981      317.84675      9.902        
    990300   301.36941      0.0042480485  -41.924979      317.87591      9.903        
    990400   302.07899      0.036997712   -365.13902      317.90506      9.904        
    990500   301.31282      0.048680307   -480.43728      317.93422      9.905        
    990600   295.4832       0.013073408   -129.02451      317.96337      9.906        
    990700   294.89794      0.027322404   -269.65116      317.99253      9.907        
    990800   301.0279       0.0020095478  -19.832695      318.02168      9.908        
    990900   303.4736       0.00077036862 -7.6029472      318.05084      9.909        
    991000   302.58702      0.015160817   -149.62563      318.07999      9.91         
    991100   293.9464      -0.013623676    134.45522      318.10915      9.911        
    991200   303.31253     -0.021564263    212.82273      318.1383       9.912        
    991300   306.46368     -0.0030621078   30.220654      318.16746      9.913        
    991400   300.38691     -0.011687647    115.34811      318.19661      9.914        
    991500   308.13036     -0.011806791    116.52396      318.22577      9.915        
    991600   301.30909      0.044737378   -441.52359      318.25492      9.916        
    991700   303.67427      0.0044860626  -44.273996      318.28408      9.917        
    991800   293.3557      -0.024890539    245.65052      318.31323      9.918        
    991900   300.65029     -0.025716843    253.80551      318.34238      9.919        
    992000   303.28933     -0.013582497    134.04882      318.37154      9.92         
    992100   304.49568     -0.031628917    312.15314      318.40069      9.921        
    992200   294.66063     -0.035930608    354.60753      318.42985      9.922        
    992300   296.65903     -0.018326498    180.86847      318.459        9.923        
    992400   295.15396     -0.018740509    184.95444      318.48816      9.924        
    992500   306.19795      0.00062700942 -6.1881018      318.51731      9.925        
    992600   305.75469      0.0028128049  -27.760226      318.54647      9.926        
    992700   297.88118      0.0067825874  -66.938933      318.57562      9.927        
    992800   295.53357      0.0072881339  -71.928289      318.60478      9.928        
    992900   296.65083     -0.0022880221   22.581023      318.63393      9.929        
    993000   296.8029       0.041384416   -408.43243      318.66309      9.93         
    993100   292.77798      0.0016876868  -16.656174      318.69224      9.931        
    993200   295.94124      0.024406085   -240.86933      318.7214       9.932        
    993300   305.42585      0.0038395907  -37.893814      318.75055      9.933        
    993400   299.87646      0.016429694   -162.14847      318.77971      9.934        
    993500   299.72531     -0.0021752809   21.468354      318.80886      9.935        
    993600   303.60208      0.021476976   -211.96128      318.83802      9.936        
    993700   299.41156      0.023723273   -234.1305       318.86717      9.937        
    993800   300.97276     -0.0041753616   41.207615      318.89633      9.938        
    993900   305.61556      0.0057208253  -56.460156      318.92548      9.939        
    994000   300.87316     -0.01241979     122.5738       318.95464      9.94         
    994100   297.95412     -0.0043866005   43.292381      318.98379      9.941        
    994200   301.49712      0.038375616   -378.73788      319.01295      9.942        
    994300   293.74917      0.0054867106  -54.149623      319.0421       9.943        
    994400   295.13073     -0.017485168    172.56519      319.07126      9.944        
    994500   296.40182      0.01477407    -145.80873      319.10041      9.945        
    994600   299.67528     -0.012659807    124.94258      319.12957      9.946        
    994700   293.61236      0.01941157    -191.5773       319.15872      9.947        
    994800   298.23013      0.016638638   -164.21059      319.18788      9.948        
    994900   302.01965      0.0063501432  -62.671041      319.21703      9.949        
    995000   300.48195      0.0083295777  -82.206541      319.24619      9.95         
    995100   299.70522      0.016300666   -160.87506      319.27534      9.951        
    995200   299.814       -0.02332025     230.15297      319.3045       9.952        
    995300   296.73355     -0.052879268    521.8778       319.33365      9.953        
    995400   300.19195     -0.037335926    368.47694      319.36281      9.954        
    995500   301.20195      0.04217123    -416.19768      319.39196      9.955        
    995600   302.95171     -0.025283658    249.5303       319.42112      9.956        
    995700   301.59895     -0.011028411    108.84195      319.45027      9.957        
    995800   300.81951      0.037158933   -366.73016      319.47943      9.958        
    995900   300.09203     -0.015601645    153.97626      319.50858      9.959        
    996000   296.91273     -0.0051209179   50.539531      319.53774      9.96         
    996100   303.0747      -0.019338503    190.85619      319.56689      9.961        
    996200   300.90131     -0.015094268    148.96884      319.59605      9.962        
    996300   301.62289     -0.044208142    436.30044      319.6252       9.963        
    996400   300.84117     -0.039498041    389.81536      319.65436      9.964        
    996500   301.42579     -0.0061861889   61.052937      319.68351      9.965        
    996600   296.96732      0.026565863   -262.18468      319.71267      9.966        
    996700   300.21141      0.0057075594  -56.329232      319.74182      9.967        
    996800   302.95212     -0.0077492269   76.478924      319.77098      9.968        
    996900   297.99441      0.013806989   -136.26438      319.80013      9.969        
    997000   304.09075     -0.020265876    200.00865      319.82928      9.97         
    997100   298.44962      0.0294033     -290.18801      319.85844      9.971        
    997200   301.3088       0.012190023   -120.30617      319.88759      9.972        
    997300   300.48334      0.01543716    -152.35292      319.91675      9.973        
    997400   299.54815     -0.0043512066   42.94307       319.9459       9.974        
    997500   304.55532      0.052249042   -515.65795      319.97506      9.975        
    997600   296.24617     -0.0019920313   19.659821      320.00421      9.976        
    997700   294.62962      0.02628806    -259.44298      320.03337      9.977        
    997800   301.29313     -0.0026319829   25.975651      320.06252      9.978        
    997900   296.25395     -0.01978557     195.2684       320.09168      9.979        
    998000   299.06752      0.0062843383  -62.021597      320.12083      9.98         
    998100   302.39429     -0.0029545218   29.158863      320.14999      9.981        
    998200   298.29057      0.035787929   -353.19939      320.17914      9.982        
    998300   299.56279     -0.011586981    114.35461      320.2083       9.983        
    998400   298.24701      0.047391498   -467.71772      320.23745      9.984        
    998500   299.78062      0.090363397   -891.81739      320.26661      9.985        
    998600   298.36558      0.0090882453  -89.694007      320.29576      9.986        
    998700   301.03698     -0.04601398     454.12268      320.32492      9.987        
    998800   300.68989     -0.0028054918   27.688052      320.35407      9.988        
    998900   292.5862      -0.050669746    500.07151      320.38323      9.989        
    999000   301.91189     -0.04370122     431.29751      320.41238      9.99         
    999100   296.94261     -0.0074370446   73.397923      320.44154      9.991        
    999200   298.41923     -0.029589902    292.02963      320.47069      9.992        
    999300   298.08794     -0.0012806631   12.639163      320.49985      9.993        
    999400   297.77807      0.016890743   -166.69867      320.529        9.994        
    999500   302.34504     -0.012372157    122.1037       320.55816      9.995        
    999600   302.12754      0.038303866   -378.02976      320.58731      9.996        
    999700   300.34516      0.015530759   -153.27668      320.61647      9.997        
    999800   302.03324      0.0037001948  -36.518083      320.64562      9.998        
    999900   306.34955      0.008386685   -82.770146      320.67478      9.999        
   1000000   300.59992     -0.031058697    306.5255       320.70393      10           
Loop time of 5097.86 on 4 procs for 1000000 steps with 2808 atoms

Performance: 16.948 ns/day, 1.416 hours/ns, 196.161 timesteps/s
306.9% CPU use with 1 MPI tasks x 4 OpenMP threads

MPI task timing breakdown:
Section |  min time  |  avg time  |  max time  |%varavg| %total
---------------------------------------------------------------
Pair    | 3475.1     | 3475.1     | 3475.1     |   0.0 | 68.17
Bond    | 370.82     | 370.82     | 370.82     |   0.0 |  7.27
Neigh   | 523.07     | 523.07     | 523.07     |   0.0 | 10.26
Comm    | 78.28      | 78.28      | 78.28      |   0.0 |  1.54
Output  | 2.9008     | 2.9008     | 2.9008     |   0.0 |  0.06
Modify  | 636.65     | 636.65     | 636.65     |   0.0 | 12.49
Other   |            | 11.01      |            |       |  0.22

Nlocal:           2808 ave        2808 max        2808 min
Histogram: 1 0 0 0 0 0 0 0 0 0
Nghost:           9634 ave        9634 max        9634 min
Histogram: 1 0 0 0 0 0 0 0 0 0
Neighs:    1.04067e+06 ave 1.04067e+06 max 1.04067e+06 min
Histogram: 1 0 0 0 0 0 0 0 0 0

Total # of neighbors = 1040669
Ave neighs/atom = 370.60862
Ave special neighs/atom = 11.65812
Neighbor list builds = 48019
Dangerous builds = 0
unfix 1
unfix 2
unfix def1

print "All done"
All done
Total wall time: 1:24:57
