LAMMPS (23 Jun 2022 - Update 1)
OMP_NUM_THREADS environment is not set. Defaulting to 1 thread. (src/comm.cpp:98)
  using 1 OpenMP thread(s) per MPI task
Loaded 1 plugins from C:\Users\HP\AppData\Local\LAMMPS 64-bit 23Jun2022\plugins
package omp 0
using multi-threaded neighbor list subroutines
package omp 4
set 4 OpenMP thread(s) per MPI task
using multi-threaded neighbor list subroutines
# Analytical calculation
# of Born matrix

# Note that because of cubic symmetry and central forces, we have:
# C11, pure axial == positive mean value: 1,2,3
# C44==C23, pure shear == positive mean value, exactly match in pairs: (4,12),(5,8),(6,7)
# C14==C56, shear/axial(normal) == zero mean, exactly match in pairs: (9,21),(14,20),(18,19)
# C15, shear/axial(in-plane) == zero mean: 10,11,13,15,16,17

# adjustable parameters

units			real
dimension		3
processors		* * *
boundary		p p p
atom_style		full
pair_style		lj/cut 10.0
bond_style		harmonic
angle_style 	harmonic
read_data		after_cross_linking_correct.data
Reading data file ...
  orthogonal box = (30.222448 27.307948 30.19145) to (59.884552 56.970052 59.853554)
  1 by 1 by 1 MPI processor grid
  reading atoms ...
  2988 atoms
  reading velocities ...
  2988 velocities
  scanning bonds ...
  4 = max bonds/atom
  scanning angles ...
  6 = max angles/atom
  reading bonds ...
  3044 bonds
  reading angles ...
  5800 angles
Finding 1-2 1-3 1-4 neighbors ...
  special bond factors lj:    0        0        0       
  special bond factors coul:  0        0        0       
     4 = max # of 1-2 neighbors
     7 = max # of 1-3 neighbors
    16 = max # of 1-4 neighbors
    20 = max # of special neighbors
  special bonds CPU = 0.004 seconds
  read_data CPU = 0.059 seconds


variable        nsteps index 100000    # length of run
variable        nthermo index  100    # thermo output interval
variable        T    equal 300         # Temperature in K



# Conversion variables
variable kb        equal 1.38065e-23    # J/K
variable Myvol     equal "vol*10^-30" # Volume in m^3
variable kbt       equal "v_kb*v_T"
variable Nat       equal atoms
variable Rhokbt    equal "v_kbt*v_Nat/v_Myvol"
variable at2Pa     equal 101325
variable kcalmol2J equal "4183.9954/(6.022e23)"
variable C1        equal "v_kcalmol2J/v_Myvol" # Convert Cb from energy to pressure units
variable C2        equal "v_Myvol/v_kbt"       # Factor for Cfl terms
variable Pa2GPa    equal 1e-9
variable delta index 1.0e-6                     # Born numdiff strain magnitude

# The six virial stress component to compute <C^fl>
compute     VIR all pressure NULL virial
compute     born all born/matrix numdiff ${delta} VIR
compute     born all born/matrix numdiff 1.0e-6 VIR
variable s1 equal "-c_VIR[1]*v_at2Pa"
variable s2 equal "-c_VIR[2]*v_at2Pa"
variable s3 equal "-c_VIR[3]*v_at2Pa"
variable s6 equal "-c_VIR[4]*v_at2Pa"
variable s5 equal "-c_VIR[5]*v_at2Pa"
variable s4 equal "-c_VIR[6]*v_at2Pa"
variable press equal press


# Average of Born term and vector to store stress
# for post processing
fix CB all ave/time 1 ${nthermo} ${nthermo} c_born[*] ave running file born.out overwrite
fix CB all ave/time 1 100 ${nthermo} c_born[*] ave running file born.out overwrite
fix CB all ave/time 1 100 100 c_born[*] ave running file born.out overwrite
fix CPR all ave/time 1 1 1 c_VIR[*] file vir.out
fix APR all ave/time 1 1 1 v_press ave running
fix VEC all vector 1 v_s1 v_s2 v_s3 v_s4 v_s5 v_s6

thermo      ${nthermo}
thermo      100
thermo_style    custom step temp press f_APR c_born[1] f_CB[1] c_born[12] f_CB[12] c_born[4] f_CB[4]
thermo_modify line multi

fix     1 all nvt temp $T $T 100
fix     1 all nvt temp 300 $T 100
fix     1 all nvt temp 300 300 100

run         ${nsteps}
run         100000
Generated 153 of 153 mixed pair_coeff terms from geometric mixing rule
Last active /omp style is angle_style harmonic/omp
Neighbor list info ...
  update every 1 steps, delay 10 steps, check yes
  max neighbors/atom: 2000, page size: 100000
  master list distance cutoff = 12
  ghost atom cutoff = 12
  binsize = 6, bins = 5 5 5
  1 neighbor lists, perpetual/occasional/extra = 1 0 0
  (1) pair lj/cut/omp, perpetual
      attributes: half, newton on, omp
      pair build: half/bin/newton/omp
      stencil: half/bin/3d
      bin: standard
WARNING: Inconsistent image flags (src/domain.cpp:819)
Per MPI rank memory allocation (min/avg/max) = 28.16 | 28.16 | 28.16 Mbytes
------------ Step              0 ----- CPU =            0 (sec) -------------
Step     =              0 Temp     =       296.6412 Press    =       773.5211 
f_APR    =       773.5211 c_born[1] =    890438.6256 f_CB[1]  =         0.0000 
c_born[12] =    174234.7200 f_CB[12] =         0.0000 c_born[4] =    346729.4185 
f_CB[4]  =         0.0000
------------ Step            100 ----- CPU =     20.20446 (sec) -------------
Step     =            100 Temp     =       303.2238 Press    =      -563.1581 
f_APR    =      -921.8349 c_born[1] =    882805.8132 f_CB[1]  =    883235.3962 
c_born[12] =    175534.7303 f_CB[12] =    175352.8381 c_born[4] =    347947.0383 
f_CB[4]  =    347956.4388
------------ Step            200 ----- CPU =     42.64469 (sec) -------------
Step     =            200 Temp     =       300.2419 Press    =       893.5074 
f_APR    =      -249.1607 c_born[1] =    886757.6937 f_CB[1]  =    885060.9997 
c_born[12] =    173606.3252 f_CB[12] =    175058.4217 c_born[4] =    346432.0161 
f_CB[4]  =    347527.2708
------------ Step            300 ----- CPU =     64.45757 (sec) -------------
Step     =            300 Temp     =       305.0961 Press    =       180.9274 
f_APR    =      -171.3890 c_born[1] =    893136.8555 f_CB[1]  =    886790.8079 
c_born[12] =    173629.9337 f_CB[12] =    174721.7341 c_born[4] =    346014.6509 
f_CB[4]  =    347261.9617
------------ Step            400 ----- CPU =     83.18401 (sec) -------------
Step     =            400 Temp     =       297.0991 Press    =     -2440.4284 
f_APR    =      -143.0286 c_born[1] =    883352.8313 f_CB[1]  =    886339.5653 
c_born[12] =    174471.7315 f_CB[12] =    174434.7678 c_born[4] =    346891.7582 
f_CB[4]  =    347048.1650
------------ Step            500 ----- CPU =     101.6699 (sec) -------------
Step     =            500 Temp     =       290.2210 Press    =     -1387.0066 
f_APR    =      -252.4104 c_born[1] =    884890.1937 f_CB[1]  =    885020.3724 
c_born[12] =    174014.3924 f_CB[12] =    174580.6764 c_born[4] =    346536.3169 
f_CB[4]  =    347219.3068
------------ Step            600 ----- CPU =     118.9665 (sec) -------------
Step     =            600 Temp     =       297.0662 Press    =       319.3519 
f_APR    =      -175.0993 c_born[1] =    890647.2134 f_CB[1]  =    885468.2431 
c_born[12] =    173119.0253 f_CB[12] =    174529.8118 c_born[4] =    344625.5206 
f_CB[4]  =    347043.9481
------------ Step            700 ----- CPU =     135.7927 (sec) -------------
Step     =            700 Temp     =       295.6491 Press    =      1006.2935 
f_APR    =      -127.7155 c_born[1] =    881561.4169 f_CB[1]  =    885310.8897 
c_born[12] =    174136.6550 f_CB[12] =    174416.8710 c_born[4] =    348307.3266 
f_CB[4]  =    346915.7529
------------ Step            800 ----- CPU =     153.1455 (sec) -------------
Step     =            800 Temp     =       308.4668 Press    =     -2934.3966 
f_APR    =       -33.5457 c_born[1] =    882222.3668 f_CB[1]  =    885193.4132 
c_born[12] =    175015.1228 f_CB[12] =    174515.8812 c_born[4] =    347763.8374 
f_CB[4]  =    347052.9386
------------ Step            900 ----- CPU =     170.1628 (sec) -------------
Step     =            900 Temp     =       301.0483 Press    =      -559.8234 
f_APR    =       -96.5492 c_born[1] =    888061.9538 f_CB[1]  =    885072.9343 
c_born[12] =    174836.7748 f_CB[12] =    174728.0021 c_born[4] =    347112.5743 
f_CB[4]  =    347253.4187
------------ Step           1000 ----- CPU =     186.8012 (sec) -------------
Step     =           1000 Temp     =       299.8504 Press    =     -3749.4676 
f_APR    =      -134.0060 c_born[1] =    881649.5538 f_CB[1]  =    885047.8503 
c_born[12] =    175250.2220 f_CB[12] =    174772.0124 c_born[4] =    348816.9342 
f_CB[4]  =    347284.4323
------------ Step           1100 ----- CPU =     203.4811 (sec) -------------
Step     =           1100 Temp     =       299.2546 Press    =      -747.1513 
f_APR    =      -129.9646 c_born[1] =    883762.8268 f_CB[1]  =    885146.8005 
c_born[12] =    177037.8690 f_CB[12] =    174772.3501 c_born[4] =    350894.1849 
f_CB[4]  =    347323.3332
------------ Step           1200 ----- CPU =     220.6502 (sec) -------------
Step     =           1200 Temp     =       295.2334 Press    =     -1957.9983 
f_APR    =      -118.8595 c_born[1] =    892726.6259 f_CB[1]  =    885540.4171 
c_born[12] =    178057.4236 f_CB[12] =    174947.3323 c_born[4] =    350199.5433 
f_CB[4]  =    347497.1394
------------ Step           1300 ----- CPU =     237.8119 (sec) -------------
Step     =           1300 Temp     =       300.9271 Press    =        25.4429 
f_APR    =       -73.3495 c_born[1] =    886320.0548 f_CB[1]  =    885628.8208 
c_born[12] =    176399.1687 f_CB[12] =    175246.6463 c_born[4] =    349587.0207 
f_CB[4]  =    347829.1122
------------ Step           1400 ----- CPU =     254.6693 (sec) -------------
Step     =           1400 Temp     =       305.1996 Press    =       663.7295 
f_APR    =       -61.2984 c_born[1] =    887977.4181 f_CB[1]  =    885964.1805 
c_born[12] =    179036.8211 f_CB[12] =    175441.3429 c_born[4] =    351252.1250 
f_CB[4]  =    348015.0812
------------ Step           1500 ----- CPU =     272.5521 (sec) -------------
Step     =           1500 Temp     =       312.5910 Press    =       953.4384 
f_APR    =        24.1172 c_born[1] =    887760.5364 f_CB[1]  =    885918.3496 
c_born[12] =    178506.7257 f_CB[12] =    175604.7149 c_born[4] =    351436.0453 
f_CB[4]  =    348186.2321
------------ Step           1600 ----- CPU =      289.234 (sec) -------------
Step     =           1600 Temp     =       310.5871 Press    =      -530.6289 
f_APR    =        78.1404 c_born[1] =    895620.9851 f_CB[1]  =    886345.3673 
c_born[12] =    177561.5788 f_CB[12] =    175796.6481 c_born[4] =    349585.4465 
f_CB[4]  =    348356.5490
------------ Step           1700 ----- CPU =     306.0061 (sec) -------------
Step     =           1700 Temp     =       302.5396 Press    =       314.7225 
f_APR    =        42.1480 c_born[1] =    894466.8247 f_CB[1]  =    886723.8916 
c_born[12] =    176273.5587 f_CB[12] =    175848.7144 c_born[4] =    348100.8339 
f_CB[4]  =    348380.6916
------------ Step           1800 ----- CPU =     322.7018 (sec) -------------
Step     =           1800 Temp     =       300.4776 Press    =      -214.3211 
f_APR    =        53.0899 c_born[1] =    885226.1442 f_CB[1]  =    886847.2739 
c_born[12] =    176172.8143 f_CB[12] =    175847.8673 c_born[4] =    348909.7254 
f_CB[4]  =    348370.6574
------------ Step           1900 ----- CPU =     340.0144 (sec) -------------
Step     =           1900 Temp     =       299.5534 Press    =       668.1002 
f_APR    =        77.6788 c_born[1] =    885170.4974 f_CB[1]  =    886783.2381 
c_born[12] =    176958.5302 f_CB[12] =    175871.0210 c_born[4] =    349542.3816 
f_CB[4]  =    348395.4787
------------ Step           2000 ----- CPU =     356.8145 (sec) -------------
Step     =           2000 Temp     =       299.5146 Press    =      -499.1480 
f_APR    =        87.1514 c_born[1] =    881081.4654 f_CB[1]  =    886727.0370 
c_born[12] =    176154.4165 f_CB[12] =    175894.6071 c_born[4] =    348502.4292 
f_CB[4]  =    348386.4759
------------ Step           2100 ----- CPU =     373.4624 (sec) -------------
Step     =           2100 Temp     =       304.7240 Press    =        43.7858 
f_APR    =        96.2310 c_born[1] =    884463.1005 f_CB[1]  =    886567.4146 
c_born[12] =    175831.9802 f_CB[12] =    175858.8964 c_born[4] =    348430.0851 
f_CB[4]  =    348333.2522
------------ Step           2200 ----- CPU =     390.4047 (sec) -------------
Step     =           2200 Temp     =       304.1797 Press    =       555.1888 
f_APR    =        82.9490 c_born[1] =    891547.3905 f_CB[1]  =    886519.5359 
c_born[12] =    176055.6232 f_CB[12] =    175881.9327 c_born[4] =    348454.4211 
f_CB[4]  =    348379.3839
------------ Step           2300 ----- CPU =     407.1945 (sec) -------------
Step     =           2300 Temp     =       301.1474 Press    =      -859.8735 
f_APR    =        89.6578 c_born[1] =    891494.4093 f_CB[1]  =    886649.3297 
c_born[12] =    177805.8072 f_CB[12] =    175893.5374 c_born[4] =    350012.8384 
f_CB[4]  =    348381.4959
------------ Step           2400 ----- CPU =     424.2694 (sec) -------------
Step     =           2400 Temp     =       296.4921 Press    =      -185.7044 
f_APR    =       141.6257 c_born[1] =    894739.8200 f_CB[1]  =    887066.6293 
c_born[12] =    175251.9095 f_CB[12] =    175879.0654 c_born[4] =    347496.5827 
f_CB[4]  =    348341.5675
------------ Step           2500 ----- CPU =     441.2847 (sec) -------------
Step     =           2500 Temp     =       302.7810 Press    =      1254.2843 
f_APR    =       131.9172 c_born[1] =    887439.7219 f_CB[1]  =    887225.0002 
c_born[12] =    174369.0534 f_CB[12] =    175845.5524 c_born[4] =    346588.0863 
f_CB[4]  =    348292.8143
------------ Step           2600 ----- CPU =     458.3355 (sec) -------------
Step     =           2600 Temp     =       299.1954 Press    =      -381.9034 
f_APR    =       129.0755 c_born[1] =    883336.8761 f_CB[1]  =    887238.0413 
c_born[12] =    173596.1673 f_CB[12] =    175816.8371 c_born[4] =    346913.3324 
f_CB[4]  =    348263.3631
------------ Step           2700 ----- CPU =     475.4082 (sec) -------------
Step     =           2700 Temp     =       298.1566 Press    =      2352.0063 
f_APR    =       140.5221 c_born[1] =    880633.3667 f_CB[1]  =    886900.4646 
c_born[12] =    172950.7637 f_CB[12] =    175804.8563 c_born[4] =    346105.4574 
f_CB[4]  =    348289.6563
------------ Step           2800 ----- CPU =     492.2015 (sec) -------------
Step     =           2800 Temp     =       303.9405 Press    =       488.8661 
f_APR    =       166.3049 c_born[1] =    890682.5052 f_CB[1]  =    887046.8319 
c_born[12] =    176038.0980 f_CB[12] =    175788.3068 c_born[4] =    348406.9175 
f_CB[4]  =    348274.0554
------------ Step           2900 ----- CPU =      509.103 (sec) -------------
Step     =           2900 Temp     =       304.0437 Press    =     -2587.0177 
f_APR    =       170.7247 c_born[1] =    889602.8684 f_CB[1]  =    887059.7757 
c_born[12] =    176738.1975 f_CB[12] =    175767.1822 c_born[4] =    349401.8208 
f_CB[4]  =    348276.7938
------------ Step           3000 ----- CPU =     526.4036 (sec) -------------
Step     =           3000 Temp     =       297.7623 Press    =      -597.9844 
f_APR    =       194.7355 c_born[1] =    879546.9388 f_CB[1]  =    887023.9095 
c_born[12] =    176244.3517 f_CB[12] =    175764.0681 c_born[4] =    349758.4393 
f_CB[4]  =    348283.7806
------------ Step           3100 ----- CPU =     543.9209 (sec) -------------
Step     =           3100 Temp     =       296.6864 Press    =     -1953.5485 
f_APR    =       182.7180 c_born[1] =    892368.8405 f_CB[1]  =    887096.7394 
c_born[12] =    175079.5132 f_CB[12] =    175773.4925 c_born[4] =    347913.3844 
f_CB[4]  =    348296.5058
------------ Step           3200 ----- CPU =     561.2122 (sec) -------------
Step     =           3200 Temp     =       307.4880 Press    =       761.7540 
f_APR    =       196.7878 c_born[1] =    876235.0890 f_CB[1]  =    886998.8619 
c_born[12] =    174626.9523 f_CB[12] =    175738.7660 c_born[4] =    347524.9191 
f_CB[4]  =    348278.5909
------------ Step           3300 ----- CPU =       578.44 (sec) -------------
Step     =           3300 Temp     =       299.7459 Press    =      1452.4120 
f_APR    =       208.2623 c_born[1] =    892683.6674 f_CB[1]  =    886933.2469 
c_born[12] =    175262.6052 f_CB[12] =    175755.2623 c_born[4] =    347385.0618 
f_CB[4]  =    348299.6560
------------ Step           3400 ----- CPU =     596.2897 (sec) -------------
Step     =           3400 Temp     =       304.4535 Press    =     -2105.5097 
f_APR    =       217.6317 c_born[1] =    881599.3313 f_CB[1]  =    886861.2707 
c_born[12] =    178240.0581 f_CB[12] =    175746.7900 c_born[4] =    351266.7936 
f_CB[4]  =    348293.8114
------------ Step           3500 ----- CPU =     613.2001 (sec) -------------
Step     =           3500 Temp     =       310.1056 Press    =     -1297.1766 
f_APR    =       210.8295 c_born[1] =    881908.6664 f_CB[1]  =    886762.0988 
c_born[12] =    175445.8409 f_CB[12] =    175779.6779 c_born[4] =    348161.9304 
f_CB[4]  =    348332.3048
------------ Step           3600 ----- CPU =     630.1838 (sec) -------------
Step     =           3600 Temp     =       291.5358 Press    =        21.1831 
f_APR    =       203.7802 c_born[1] =    882023.2041 f_CB[1]  =    886680.3794 
c_born[12] =    175426.6471 f_CB[12] =    175796.6466 c_born[4] =    348679.1613 
f_CB[4]  =    348355.2890
------------ Step           3700 ----- CPU =     647.6567 (sec) -------------
Step     =           3700 Temp     =       301.3313 Press    =        79.3250 
f_APR    =       224.8746 c_born[1] =    886492.2609 f_CB[1]  =    886624.0484 
c_born[12] =    174000.5735 f_CB[12] =    175785.4217 c_born[4] =    346848.7275 
f_CB[4]  =    348346.8303
------------ Step           3800 ----- CPU =     664.5904 (sec) -------------
Step     =           3800 Temp     =       302.0071 Press    =      2060.4517 
f_APR    =       218.9921 c_born[1] =    888196.5306 f_CB[1]  =    886707.9975 
c_born[12] =    176109.1109 f_CB[12] =    175729.3195 c_born[4] =    348378.3183 
f_CB[4]  =    348289.5516
------------ Step           3900 ----- CPU =     681.6806 (sec) -------------
Step     =           3900 Temp     =       304.6222 Press    =      2517.0295 
f_APR    =       234.3197 c_born[1] =    877288.4470 f_CB[1]  =    886505.1629 
c_born[12] =    179113.1308 f_CB[12] =    175773.1566 c_born[4] =    352863.2160 
f_CB[4]  =    348359.3282
------------ Step           4000 ----- CPU =      698.649 (sec) -------------
Step     =           4000 Temp     =       309.4255 Press    =      2333.0411 
f_APR    =       251.6131 c_born[1] =    877562.7033 f_CB[1]  =    886356.0118 
c_born[12] =    174923.2561 f_CB[12] =    175812.1683 c_born[4] =    348247.5915 
f_CB[4]  =    348418.1752
------------ Step           4100 ----- CPU =     715.6929 (sec) -------------
Step     =           4100 Temp     =       300.7633 Press    =     -1722.8550 
f_APR    =       236.5113 c_born[1] =    883335.5076 f_CB[1]  =    886204.3648 
c_born[12] =    178116.4783 f_CB[12] =    175853.9361 c_born[4] =    352161.3555 
f_CB[4]  =    348478.5639
------------ Step           4200 ----- CPU =     732.6845 (sec) -------------
Step     =           4200 Temp     =       297.3919 Press    =      -693.2982 
f_APR    =       229.1119 c_born[1] =    888579.6488 f_CB[1]  =    886238.7960 
c_born[12] =    176996.1515 f_CB[12] =    175893.0901 c_born[4] =    350143.3538 
f_CB[4]  =    348536.1668
------------ Step           4300 ----- CPU =     750.0561 (sec) -------------
Step     =           4300 Temp     =       301.4968 Press    =      1438.1768 
f_APR    =       244.5592 c_born[1] =    890663.9086 f_CB[1]  =    886180.1351 
c_born[12] =    177687.1550 f_CB[12] =    175920.8552 c_born[4] =    349985.7234 
f_CB[4]  =    348574.6042
------------ Step           4400 ----- CPU =     767.1001 (sec) -------------
Step     =           4400 Temp     =       298.7090 Press    =      -485.8178 
f_APR    =       248.0173 c_born[1] =    882057.2116 f_CB[1]  =    886105.7823 
c_born[12] =    174200.3790 f_CB[12] =    175914.9102 c_born[4] =    348140.3071 
f_CB[4]  =    348588.3925
------------ Step           4500 ----- CPU =     784.0422 (sec) -------------
Step     =           4500 Temp     =       300.0983 Press    =      1428.2873 
f_APR    =       258.4014 c_born[1] =    887892.6475 f_CB[1]  =    886056.0026 
c_born[12] =    177696.7810 f_CB[12] =    175905.2890 c_born[4] =    350877.8526 
f_CB[4]  =    348604.5117
------------ Step           4600 ----- CPU =     800.8692 (sec) -------------
Step     =           4600 Temp     =       307.1552 Press    =      1282.2181 
f_APR    =       277.0687 c_born[1] =    888936.6272 f_CB[1]  =    886131.7930 
c_born[12] =    175650.2263 f_CB[12] =    175937.2500 c_born[4] =    348880.4603 
f_CB[4]  =    348645.1740
------------ Step           4700 ----- CPU =     817.7818 (sec) -------------
Step     =           4700 Temp     =       308.3376 Press    =       822.2702 
f_APR    =       282.2239 c_born[1] =    894253.6601 f_CB[1]  =    886165.7037 
c_born[12] =    175370.6817 f_CB[12] =    175920.9065 c_born[4] =    348303.7639 
f_CB[4]  =    348641.5131
------------ Step           4800 ----- CPU =     834.6803 (sec) -------------
Step     =           4800 Temp     =       297.8656 Press    =      -573.0675 
f_APR    =       286.9565 c_born[1] =    880563.7394 f_CB[1]  =    886232.1737 
c_born[12] =    178637.7558 f_CB[12] =    175917.1702 c_born[4] =    352199.6836 
f_CB[4]  =    348636.4127
------------ Step           4900 ----- CPU =     851.8364 (sec) -------------
Step     =           4900 Temp     =       299.2858 Press    =       101.8876 
f_APR    =       281.6847 c_born[1] =    885445.1006 f_CB[1]  =    886130.3787 
c_born[12] =    176104.4258 f_CB[12] =    175939.1526 c_born[4] =    348778.6880 
f_CB[4]  =    348663.8436
------------ Step           5000 ----- CPU =     869.1428 (sec) -------------
Step     =           5000 Temp     =       304.2942 Press    =      -343.4750 
f_APR    =       273.9698 c_born[1] =    889575.5216 f_CB[1]  =    886160.4813 
c_born[12] =    177298.7933 f_CB[12] =    175944.8566 c_born[4] =    349658.4464 
f_CB[4]  =    348665.1511
------------ Step           5100 ----- CPU =     886.1998 (sec) -------------
Step     =           5100 Temp     =       304.8407 Press    =      -659.7316 
f_APR    =       273.2474 c_born[1] =    878423.8049 f_CB[1]  =    886200.3388 
c_born[12] =    174947.4050 f_CB[12] =    175942.5050 c_born[4] =    348349.1739 
f_CB[4]  =    348664.5236
------------ Step           5200 ----- CPU =     903.0655 (sec) -------------
Step     =           5200 Temp     =       299.7124 Press    =     -1051.2613 
f_APR    =       268.5730 c_born[1] =    880572.3120 f_CB[1]  =    886049.3460 
c_born[12] =    176394.9782 f_CB[12] =    175947.0418 c_born[4] =    349863.3382 
f_CB[4]  =    348676.2343
------------ Step           5300 ----- CPU =     920.0623 (sec) -------------
Step     =           5300 Temp     =       289.0357 Press    =       -20.8596 
f_APR    =       266.6473 c_born[1] =    889840.5235 f_CB[1]  =    886068.5651 
c_born[12] =    171184.6645 f_CB[12] =    175905.4424 c_born[4] =    343769.2134 
f_CB[4]  =    348633.8386
------------ Step           5400 ----- CPU =     938.5461 (sec) -------------
Step     =           5400 Temp     =       293.0302 Press    =      -747.4630 
f_APR    =       279.2605 c_born[1] =    895563.0908 f_CB[1]  =    886106.8657 
c_born[12] =    177059.1193 f_CB[12] =    175878.2025 c_born[4] =    348916.1561 
f_CB[4]  =    348599.6094
------------ Step           5500 ----- CPU =     955.7037 (sec) -------------
Step     =           5500 Temp     =       297.0493 Press    =     -2657.3550 
f_APR    =       277.6813 c_born[1] =    889973.2578 f_CB[1]  =    886077.5743 
c_born[12] =    173475.4625 f_CB[12] =    175875.2156 c_born[4] =    345480.8526 
f_CB[4]  =    348590.5012
------------ Step           5600 ----- CPU =     972.9659 (sec) -------------
Step     =           5600 Temp     =       302.1298 Press    =       532.9181 
f_APR    =       284.6741 c_born[1] =    882731.9124 f_CB[1]  =    886094.8216 
c_born[12] =    176546.8977 f_CB[12] =    175848.9800 c_born[4] =    350246.8896 
f_CB[4]  =    348570.6937
------------ Step           5700 ----- CPU =     995.0694 (sec) -------------
Step     =           5700 Temp     =       299.6187 Press    =      -732.6874 
f_APR    =       280.1184 c_born[1] =    879625.8347 f_CB[1]  =    885892.8474 
c_born[12] =    174870.9799 f_CB[12] =    175833.4701 c_born[4] =    347879.1696 
f_CB[4]  =    348575.6249
------------ Step           5800 ----- CPU =     1017.731 (sec) -------------
Step     =           5800 Temp     =       297.6790 Press    =       262.3571 
f_APR    =       274.0323 c_born[1] =    880894.1366 f_CB[1]  =    885843.3293 
c_born[12] =    174771.9057 f_CB[12] =    175839.7190 c_born[4] =    348053.7681 
f_CB[4]  =    348585.3077
------------ Step           5900 ----- CPU =     1040.474 (sec) -------------
Step     =           5900 Temp     =       305.6280 Press    =      -573.4555 
f_APR    =       289.2760 c_born[1] =    886273.9221 f_CB[1]  =    885738.3561 
c_born[12] =    171939.2772 f_CB[12] =    175784.0699 c_born[4] =    343429.4483 
f_CB[4]  =    348535.7408
------------ Step           6000 ----- CPU =     1063.726 (sec) -------------
Step     =           6000 Temp     =       289.8798 Press    =       631.7102 
f_APR    =       284.8672 c_born[1] =    884054.2815 f_CB[1]  =    885751.5133 
c_born[12] =    174158.1115 f_CB[12] =    175757.9568 c_born[4] =    347383.4041 
f_CB[4]  =    348507.4260
------------ Step           6100 ----- CPU =     1088.952 (sec) -------------
Step     =           6100 Temp     =       292.6607 Press    =       820.1261 
f_APR    =       266.7418 c_born[1] =    883088.8885 f_CB[1]  =    885712.7185 
c_born[12] =    170865.2340 f_CB[12] =    175727.4497 c_born[4] =    343834.5833 
f_CB[4]  =    348484.3030
------------ Step           6200 ----- CPU =     1116.432 (sec) -------------
Step     =           6200 Temp     =       300.9928 Press    =      2729.0470 
f_APR    =       260.3936 c_born[1] =    886412.5450 f_CB[1]  =    885782.6242 
c_born[12] =    173133.5494 f_CB[12] =    175679.5488 c_born[4] =    345726.0393 
f_CB[4]  =    348426.9058
------------ Step           6300 ----- CPU =     1144.816 (sec) -------------
Step     =           6300 Temp     =       299.7595 Press    =        90.5276 
f_APR    =       248.1772 c_born[1] =    877876.4109 f_CB[1]  =    885745.4762 
c_born[12] =    172509.0976 f_CB[12] =    175638.3251 c_born[4] =    346328.0853 
f_CB[4]  =    348384.4233
------------ Step           6400 ----- CPU =     1172.576 (sec) -------------
Step     =           6400 Temp     =       303.5427 Press    =      -802.6449 
f_APR    =       240.7393 c_born[1] =    890824.7225 f_CB[1]  =    885684.3009 
c_born[12] =    173765.2057 f_CB[12] =    175629.1968 c_born[4] =    345955.2578 
f_CB[4]  =    348376.3734
------------ Step           6500 ----- CPU =     1199.653 (sec) -------------
Step     =           6500 Temp     =       298.7263 Press    =      -402.3181 
f_APR    =       239.1525 c_born[1] =    877797.5101 f_CB[1]  =    885683.6544 
c_born[12] =    172989.6083 f_CB[12] =    175595.5393 c_born[4] =    345874.3998 
f_CB[4]  =    348334.4965
------------ Step           6600 ----- CPU =     1228.248 (sec) -------------
Step     =           6600 Temp     =       291.6085 Press    =     -1256.2408 
f_APR    =       227.6724 c_born[1] =    890228.7923 f_CB[1]  =    885630.4901 
c_born[12] =    174371.6864 f_CB[12] =    175572.9881 c_born[4] =    347072.6730 
f_CB[4]  =    348316.7112
------------ Step           6700 ----- CPU =     1254.887 (sec) -------------
Step     =           6700 Temp     =       293.0795 Press    =       234.7055 
f_APR    =       226.8831 c_born[1] =    894706.3562 f_CB[1]  =    885691.1247 
c_born[12] =    174852.1640 f_CB[12] =    175538.2705 c_born[4] =    346939.4343 
f_CB[4]  =    348277.4885
------------ Step           6800 ----- CPU =     1280.522 (sec) -------------
Step     =           6800 Temp     =       297.8143 Press    =      -494.3996 
f_APR    =       224.6701 c_born[1] =    896298.9808 f_CB[1]  =    885803.2656 
c_born[12] =    175397.7454 f_CB[12] =    175537.7141 c_born[4] =    346530.3711 
f_CB[4]  =    348262.4415
------------ Step           6900 ----- CPU =      1308.33 (sec) -------------
Step     =           6900 Temp     =       303.2533 Press    =       -86.8686 
f_APR    =       226.6697 c_born[1] =    899920.5499 f_CB[1]  =    885940.4705 
c_born[12] =    176240.9267 f_CB[12] =    175540.4925 c_born[4] =    347327.8832 
f_CB[4]  =    348250.2515
------------ Step           7000 ----- CPU =     1332.889 (sec) -------------
Step     =           7000 Temp     =       299.4248 Press    =       884.4768 
f_APR    =       226.0720 c_born[1] =    891099.9058 f_CB[1]  =    886039.8296 
c_born[12] =    174690.1737 f_CB[12] =    175550.3976 c_born[4] =    346746.7654 
f_CB[4]  =    348243.5694
------------ Step           7100 ----- CPU =     1353.593 (sec) -------------
Step     =           7100 Temp     =       297.6058 Press    =      -819.1606 
f_APR    =       227.4452 c_born[1] =    894374.3224 f_CB[1]  =    886098.8917 
c_born[12] =    175158.4180 f_CB[12] =    175529.1665 c_born[4] =    346735.4158 
f_CB[4]  =    348216.9356
------------ Step           7200 ----- CPU =     1375.427 (sec) -------------
Step     =           7200 Temp     =       294.6878 Press    =      1326.0293 
f_APR    =       226.3598 c_born[1] =    891817.2446 f_CB[1]  =    886163.9790 
c_born[12] =    172358.5984 f_CB[12] =    175518.9807 c_born[4] =    343647.8173 
f_CB[4]  =    348196.4460
------------ Step           7300 ----- CPU =     1397.253 (sec) -------------
Step     =           7300 Temp     =       302.0100 Press    =      -780.6202 
f_APR    =       224.0042 c_born[1] =    893672.6519 f_CB[1]  =    886245.2918 
c_born[12] =    173110.0794 f_CB[12] =    175497.8830 c_born[4] =    345212.8444 
f_CB[4]  =    348163.0182
------------ Step           7400 ----- CPU =     1418.711 (sec) -------------
Step     =           7400 Temp     =       305.6654 Press    =     -1056.0790 
f_APR    =       214.8980 c_born[1] =    890582.1388 f_CB[1]  =    886413.6175 
c_born[12] =    174245.5240 f_CB[12] =    175458.5413 c_born[4] =    346043.5002 
f_CB[4]  =    348108.8952
------------ Step           7500 ----- CPU =     1439.327 (sec) -------------
Step     =           7500 Temp     =       303.9655 Press    =       833.9031 
f_APR    =       223.9549 c_born[1] =    901988.5879 f_CB[1]  =    886515.2930 
c_born[12] =    172634.1714 f_CB[12] =    175438.8291 c_born[4] =    344699.8056 
f_CB[4]  =    348083.0247
------------ Step           7600 ----- CPU =     1458.662 (sec) -------------
Step     =           7600 Temp     =       299.2591 Press    =       284.2765 
f_APR    =       223.6760 c_born[1] =    888855.2709 f_CB[1]  =    886614.9650 
c_born[12] =    174872.5717 f_CB[12] =    175391.8836 c_born[4] =    347170.6200 
f_CB[4]  =    348030.6312
------------ Step           7700 ----- CPU =     1479.174 (sec) -------------
Step     =           7700 Temp     =       296.3953 Press    =      1407.3107 
f_APR    =       221.2255 c_born[1] =    883618.4391 f_CB[1]  =    886610.6414 
c_born[12] =    176405.7049 f_CB[12] =    175399.6129 c_born[4] =    349167.4452 
f_CB[4]  =    348037.5630
------------ Step           7800 ----- CPU =     1498.728 (sec) -------------
Step     =           7800 Temp     =       296.0345 Press    =      3716.8425 
f_APR    =       230.1839 c_born[1] =    894339.1283 f_CB[1]  =    886624.8065 
c_born[12] =    175518.4502 f_CB[12] =    175407.4466 c_born[4] =    347744.0278 
f_CB[4]  =    348050.9049
------------ Step           7900 ----- CPU =     1518.255 (sec) -------------
Step     =           7900 Temp     =       298.7734 Press    =      2288.9119 
f_APR    =       256.4773 c_born[1] =    886644.1324 f_CB[1]  =    886668.2317 
c_born[12] =    173639.2913 f_CB[12] =    175389.5566 c_born[4] =    347422.9173 
f_CB[4]  =    348035.4410
------------ Step           8000 ----- CPU =     1540.158 (sec) -------------
Step     =           8000 Temp     =       302.9651 Press    =       587.0499 
f_APR    =       260.8526 c_born[1] =    881851.9600 f_CB[1]  =    886671.2173 
c_born[12] =    177484.4402 f_CB[12] =    175390.8700 c_born[4] =    350302.9247 
f_CB[4]  =    348044.6258
------------ Step           8100 ----- CPU =     1568.834 (sec) -------------
Step     =           8100 Temp     =       306.3515 Press    =      -876.0066 
f_APR    =       257.7001 c_born[1] =    883714.2952 f_CB[1]  =    886618.2694 
c_born[12] =    173715.1189 f_CB[12] =    175391.4308 c_born[4] =    345926.9764 
f_CB[4]  =    348048.3352
------------ Step           8200 ----- CPU =     1596.521 (sec) -------------
Step     =           8200 Temp     =       301.0575 Press    =       429.9606 
f_APR    =       253.6033 c_born[1] =    885417.0143 f_CB[1]  =    886601.9161 
c_born[12] =    175721.8299 f_CB[12] =    175368.2048 c_born[4] =    348535.1059 
f_CB[4]  =    348021.0979
------------ Step           8300 ----- CPU =     1624.006 (sec) -------------
Step     =           8300 Temp     =       298.0350 Press    =      -258.5812 
f_APR    =       252.6945 c_born[1] =    896656.2788 f_CB[1]  =    886653.9155 
c_born[12] =    171883.3316 f_CB[12] =    175355.6880 c_born[4] =    343072.1168 
f_CB[4]  =    348001.3220
------------ Step           8400 ----- CPU =     1649.192 (sec) -------------
Step     =           8400 Temp     =       300.5592 Press    =     -1148.3779 
f_APR    =       242.0772 c_born[1] =    891030.7017 f_CB[1]  =    886758.6852 
c_born[12] =    174758.3425 f_CB[12] =    175342.2805 c_born[4] =    347266.5432 
f_CB[4]  =    347978.0867
------------ Step           8500 ----- CPU =     1672.385 (sec) -------------
Step     =           8500 Temp     =       298.8448 Press    =      1673.3830 
f_APR    =       238.2864 c_born[1] =    889070.0240 f_CB[1]  =    886757.3236 
c_born[12] =    178452.9420 f_CB[12] =    175357.3935 c_born[4] =    351290.4006 
f_CB[4]  =    347998.6897
------------ Step           8600 ----- CPU =     1693.603 (sec) -------------
Step     =           8600 Temp     =       303.5048 Press    =     -1373.0144 
f_APR    =       239.2268 c_born[1] =    890195.9496 f_CB[1]  =    886767.4786 
c_born[12] =    173737.6923 f_CB[12] =    175364.4664 c_born[4] =    346088.0081 
f_CB[4]  =    348008.7803
------------ Step           8700 ----- CPU =     1715.766 (sec) -------------
Step     =           8700 Temp     =       304.3540 Press    =       539.0533 
f_APR    =       248.0106 c_born[1] =    880153.2655 f_CB[1]  =    886723.8526 
c_born[12] =    178533.5223 f_CB[12] =    175386.2156 c_born[4] =    352193.8170 
f_CB[4]  =    348037.2540
------------ Step           8800 ----- CPU =      1738.09 (sec) -------------
Step     =           8800 Temp     =       297.5391 Press    =      -373.7256 
f_APR    =       250.4791 c_born[1] =    895484.6956 f_CB[1]  =    886759.9230 
c_born[12] =    175632.0484 f_CB[12] =    175393.0284 c_born[4] =    346815.4191 
f_CB[4]  =    348039.7686
------------ Step           8900 ----- CPU =     1760.366 (sec) -------------
Step     =           8900 Temp     =       293.5552 Press    =      -911.6832 
f_APR    =       248.6596 c_born[1] =    884084.0246 f_CB[1]  =    886808.5497 
c_born[12] =    175500.0506 f_CB[12] =    175390.3169 c_born[4] =    348038.9824 
f_CB[4]  =    348030.0409
------------ Step           9000 ----- CPU =     1781.815 (sec) -------------
Step     =           9000 Temp     =       294.1236 Press    =      1361.6791 
f_APR    =       252.0673 c_born[1] =    887023.3498 f_CB[1]  =    886813.1439 
c_born[12] =    176834.0008 f_CB[12] =    175408.7909 c_born[4] =    349149.9418 
f_CB[4]  =    348045.9011
------------ Step           9100 ----- CPU =     1801.552 (sec) -------------
Step     =           9100 Temp     =       306.5497 Press    =      1293.4579 
f_APR    =       250.1832 c_born[1] =    883480.6805 f_CB[1]  =    886732.2582 
c_born[12] =    173954.9387 f_CB[12] =    175410.7066 c_born[4] =    346567.0926 
f_CB[4]  =    348053.8649
------------ Step           9200 ----- CPU =     1823.348 (sec) -------------
Step     =           9200 Temp     =       302.7755 Press    =     -1130.5242 
f_APR    =       247.8425 c_born[1] =    883184.1140 f_CB[1]  =    886712.0943 
c_born[12] =    172879.7071 f_CB[12] =    175390.6343 c_born[4] =    345910.8361 
f_CB[4]  =    348031.9910
------------ Step           9300 ----- CPU =     1844.052 (sec) -------------
Step     =           9300 Temp     =       293.9983 Press    =       615.2177 
f_APR    =       246.5507 c_born[1] =    885086.4989 f_CB[1]  =    886701.4712 
c_born[12] =    174108.0133 f_CB[12] =    175356.6019 c_born[4] =    346205.7873 
f_CB[4]  =    347994.4241
------------ Step           9400 ----- CPU =     1865.001 (sec) -------------
Step     =           9400 Temp     =       291.6185 Press    =      -890.6851 
f_APR    =       238.4755 c_born[1] =    894776.0145 f_CB[1]  =    886700.9983 
c_born[12] =    171030.4800 f_CB[12] =    175343.1253 c_born[4] =    342492.3901 
f_CB[4]  =    347981.4916
------------ Step           9500 ----- CPU =     1886.123 (sec) -------------
Step     =           9500 Temp     =       294.4351 Press    =     -2501.0352 
f_APR    =       223.7024 c_born[1] =    895652.9108 f_CB[1]  =    886755.4537 
c_born[12] =    173910.1360 f_CB[12] =    175313.3522 c_born[4] =    345042.2150 
f_CB[4]  =    347947.4665
------------ Step           9600 ----- CPU =     1907.865 (sec) -------------
Step     =           9600 Temp     =       293.3085 Press    =      1112.0107 
f_APR    =       223.4064 c_born[1] =    885792.0272 f_CB[1]  =    886779.7998 
c_born[12] =    174868.2230 f_CB[12] =    175296.5042 c_born[4] =    347984.7065 
f_CB[4]  =    347929.1602
------------ Step           9700 ----- CPU =     1928.625 (sec) -------------
Step     =           9700 Temp     =       302.4028 Press    =        85.5982 
f_APR    =       233.4394 c_born[1] =    882492.4987 f_CB[1]  =    886744.7048 
c_born[12] =    173810.8795 f_CB[12] =    175289.8053 c_born[4] =    346749.0941 
f_CB[4]  =    347924.2747
------------ Step           9800 ----- CPU =     1949.182 (sec) -------------
Step     =           9800 Temp     =       301.3789 Press    =     -1507.5021 
f_APR    =       226.3036 c_born[1] =    879162.6413 f_CB[1]  =    886693.9231 
c_born[12] =    174933.3383 f_CB[12] =    175282.0339 c_born[4] =    347981.4246 
f_CB[4]  =    347921.2184
------------ Step           9900 ----- CPU =     1968.963 (sec) -------------
Step     =           9900 Temp     =       297.3967 Press    =     -1028.0604 
f_APR    =       217.4118 c_born[1] =    879961.0683 f_CB[1]  =    886617.5030 
c_born[12] =    177923.4503 f_CB[12] =    175308.6526 c_born[4] =    350524.2753 
f_CB[4]  =    347952.3803
------------ Step          10000 ----- CPU =     1988.308 (sec) -------------
Step     =          10000 Temp     =       293.0600 Press    =      1151.8119 
f_APR    =       221.0302 c_born[1] =    882155.9788 f_CB[1]  =    886588.1630 
c_born[12] =    177561.6327 f_CB[12] =    175330.9981 c_born[4] =    350776.9353 
f_CB[4]  =    347974.4542
------------ Step          10100 ----- CPU =     2008.372 (sec) -------------
Step     =          10100 Temp     =       299.3668 Press    =       953.3238 
f_APR    =       229.9682 c_born[1] =    898765.0064 f_CB[1]  =    886621.4235 
c_born[12] =    176122.1485 f_CB[12] =    175340.5450 c_born[4] =    347756.5016 
f_CB[4]  =    347983.2190
------------ Step          10200 ----- CPU =      2028.38 (sec) -------------
Step     =          10200 Temp     =       302.6882 Press    =       415.3604 
f_APR    =       236.6727 c_born[1] =    891944.0306 f_CB[1]  =    886684.6519 
c_born[12] =    176560.7504 f_CB[12] =    175352.6988 c_born[4] =    349588.0835 
f_CB[4]  =    347991.1753
------------ Step          10300 ----- CPU =     2048.361 (sec) -------------
Step     =          10300 Temp     =       305.1245 Press    =      -530.5631 
f_APR    =       243.9955 c_born[1] =    882260.7956 f_CB[1]  =    886699.0084 
c_born[12] =    177249.9876 f_CB[12] =    175365.8209 c_born[4] =    350840.6491 
f_CB[4]  =    348006.6143
------------ Step          10400 ----- CPU =     2067.829 (sec) -------------
Step     =          10400 Temp     =       299.3279 Press    =       527.0227 
f_APR    =       249.8984 c_born[1] =    886220.8942 f_CB[1]  =    886702.9023 
c_born[12] =    176355.3898 f_CB[12] =    175383.3965 c_born[4] =    348924.3651 
f_CB[4]  =    348023.4560
------------ Step          10500 ----- CPU =     2087.392 (sec) -------------
Step     =          10500 Temp     =       295.9254 Press    =      -184.8118 
f_APR    =       255.2851 c_born[1] =    888424.9939 f_CB[1]  =    886724.9086 
c_born[12] =    177653.0109 f_CB[12] =    175396.2780 c_born[4] =    350547.7223 
f_CB[4]  =    348035.0438
------------ Step          10600 ----- CPU =     2107.608 (sec) -------------
Step     =          10600 Temp     =       302.0174 Press    =     -1402.5888 
f_APR    =       253.6704 c_born[1] =    892067.4132 f_CB[1]  =    886770.4421 
c_born[12] =    177042.1580 f_CB[12] =    175414.8651 c_born[4] =    349166.0834 
f_CB[4]  =    348052.0546
------------ Step          10700 ----- CPU =     2127.661 (sec) -------------
Step     =          10700 Temp     =       300.6746 Press    =      1208.0823 
f_APR    =       253.5800 c_born[1] =    894256.9074 f_CB[1]  =    886753.0486 
c_born[12] =    177869.3016 f_CB[12] =    175443.5043 c_born[4] =    349877.1737 
f_CB[4]  =    348081.8664
------------ Step          10800 ----- CPU =     2148.045 (sec) -------------
Step     =          10800 Temp     =       294.7176 Press    =      1508.4671 
f_APR    =       254.2886 c_born[1] =    885298.6285 f_CB[1]  =    886780.8889 
c_born[12] =    178385.2736 f_CB[12] =    175467.1669 c_born[4] =    351179.6354 
f_CB[4]  =    348101.9753
------------ Step          10900 ----- CPU =     2168.705 (sec) -------------
Step     =          10900 Temp     =       298.4601 Press    =      1639.9511 
f_APR    =       258.3992 c_born[1] =    887563.6726 f_CB[1]  =    886800.7500 
c_born[12] =    178382.2649 f_CB[12] =    175484.2342 c_born[4] =    351121.0853 
f_CB[4]  =    348117.0290
------------ Step          11000 ----- CPU =     2188.707 (sec) -------------
Step     =          11000 Temp     =       306.8810 Press    =      -801.7717 
f_APR    =       254.1665 c_born[1] =    882868.1489 f_CB[1]  =    886768.9965 
c_born[12] =    176443.7402 f_CB[12] =    175497.8598 c_born[4] =    348741.9261 
f_CB[4]  =    348131.3690
------------ Step          11100 ----- CPU =     2209.078 (sec) -------------
Step     =          11100 Temp     =       300.3695 Press    =        67.6579 
f_APR    =       256.2614 c_born[1] =    891813.8959 f_CB[1]  =    886748.1339 
c_born[12] =    177790.9784 f_CB[12] =    175519.6767 c_born[4] =    349944.1293 
f_CB[4]  =    348153.0623
------------ Step          11200 ----- CPU =     2229.144 (sec) -------------
Step     =          11200 Temp     =       298.4788 Press    =      -223.9249 
f_APR    =       256.5288 c_born[1] =    888007.1866 f_CB[1]  =    886806.0338 
c_born[12] =    176124.3619 f_CB[12] =    175520.7121 c_born[4] =    349415.0218 
f_CB[4]  =    348148.3178
------------ Step          11300 ----- CPU =         2249 (sec) -------------
Step     =          11300 Temp     =       296.2149 Press    =       754.4684 
f_APR    =       254.9954 c_born[1] =    884562.7565 f_CB[1]  =    886831.1849 
c_born[12] =    176142.1899 f_CB[12] =    175512.6168 c_born[4] =    348972.5750 
f_CB[4]  =    348143.1680
------------ Step          11400 ----- CPU =     2268.834 (sec) -------------
Step     =          11400 Temp     =       292.3966 Press    =       639.7529 
f_APR    =       257.8829 c_born[1] =    880605.2469 f_CB[1]  =    886757.9490 
c_born[12] =    176959.0534 f_CB[12] =    175525.2249 c_born[4] =    350319.8142 
f_CB[4]  =    348166.3091
------------ Step          11500 ----- CPU =     2288.852 (sec) -------------
Step     =          11500 Temp     =       296.2275 Press    =      1497.2060 
f_APR    =       259.7667 c_born[1] =    891507.1465 f_CB[1]  =    886747.8274 
c_born[12] =    176026.3797 f_CB[12] =    175533.2387 c_born[4] =    348090.4523 
f_CB[4]  =    348176.3906
------------ Step          11600 ----- CPU =      2308.68 (sec) -------------
Step     =          11600 Temp     =       299.1017 Press    =       392.6043 
f_APR    =       263.3295 c_born[1] =    882479.9318 f_CB[1]  =    886715.4967 
c_born[12] =    175478.7586 f_CB[12] =    175533.4156 c_born[4] =    348980.9969 
f_CB[4]  =    348180.9669
------------ Step          11700 ----- CPU =     2331.761 (sec) -------------
Step     =          11700 Temp     =       308.9192 Press    =       698.4900 
f_APR    =       267.7281 c_born[1] =    896612.5283 f_CB[1]  =    886747.9735 
c_born[12] =    176880.2206 f_CB[12] =    175539.3646 c_born[4] =    349359.4091 
f_CB[4]  =    348188.3580
------------ Step          11800 ----- CPU =     2354.087 (sec) -------------
Step     =          11800 Temp     =       298.0588 Press    =     -1891.5005 
f_APR    =       269.0833 c_born[1] =    883724.8661 f_CB[1]  =    886807.6072 
c_born[12] =    176846.9516 f_CB[12] =    175552.6796 c_born[4] =    349793.0101 
f_CB[4]  =    348197.8720
------------ Step          11900 ----- CPU =     2376.132 (sec) -------------
Step     =          11900 Temp     =       300.2699 Press    =      -160.6877 
f_APR    =       264.7638 c_born[1] =    888711.6488 f_CB[1]  =    886793.0640 
c_born[12] =    175817.3319 f_CB[12] =    175564.2393 c_born[4] =    347848.6065 
f_CB[4]  =    348211.5735
------------ Step          12000 ----- CPU =     2398.292 (sec) -------------
Step     =          12000 Temp     =       290.7873 Press    =         1.3695 
f_APR    =       264.8060 c_born[1] =    875627.9453 f_CB[1]  =    886736.6487 
c_born[12] =    175410.7973 f_CB[12] =    175569.1544 c_born[4] =    349133.9428 
f_CB[4]  =    348220.6160
------------ Step          12100 ----- CPU =     2421.481 (sec) -------------
Step     =          12100 Temp     =       304.2301 Press    =      1666.2337 
f_APR    =       255.8408 c_born[1] =    891075.0028 f_CB[1]  =    886745.8800 
c_born[12] =    174108.6348 f_CB[12] =    175568.4191 c_born[4] =    346760.2201 
f_CB[4]  =    348222.8150
------------ Step          12200 ----- CPU =     2444.061 (sec) -------------
Step     =          12200 Temp     =       303.9797 Press    =      -746.5658 
f_APR    =       252.0668 c_born[1] =    892250.3518 f_CB[1]  =    886770.3653 
c_born[12] =    174424.2299 f_CB[12] =    175563.9276 c_born[4] =    346627.3168 
f_CB[4]  =    348216.1515
------------ Step          12300 ----- CPU =     2467.513 (sec) -------------
Step     =          12300 Temp     =       302.7894 Press    =      -170.1326 
f_APR    =       253.0345 c_born[1] =    886785.2253 f_CB[1]  =    886826.5880 
c_born[12] =    175256.7290 f_CB[12] =    175557.1109 c_born[4] =    347695.8242 
f_CB[4]  =    348199.5594
------------ Step          12400 ----- CPU =     2489.404 (sec) -------------
Step     =          12400 Temp     =       296.8198 Press    =      -356.3321 
f_APR    =       259.2910 c_born[1] =    889070.6609 f_CB[1]  =    886859.4583 
c_born[12] =    176334.8789 f_CB[12] =    175564.0788 c_born[4] =    348486.6597 
f_CB[4]  =    348201.9279
------------ Step          12500 ----- CPU =     2510.928 (sec) -------------
Step     =          12500 Temp     =       300.4577 Press    =       873.9383 
f_APR    =       258.3289 c_born[1] =    888920.1281 f_CB[1]  =    886910.4901 
c_born[12] =    173205.6398 f_CB[12] =    175559.9000 c_born[4] =    345570.5183 
f_CB[4]  =    348190.4531
------------ Step          12600 ----- CPU =     2534.102 (sec) -------------
Step     =          12600 Temp     =       298.8890 Press    =       457.5047 
f_APR    =       263.0405 c_born[1] =    885541.4250 f_CB[1]  =    886936.9416 
c_born[12] =    176204.4731 f_CB[12] =    175552.4828 c_born[4] =    349065.8372 
f_CB[4]  =    348180.8616
------------ Step          12700 ----- CPU =     2558.164 (sec) -------------
Step     =          12700 Temp     =       296.0210 Press    =      1162.3883 
f_APR    =       260.4064 c_born[1] =    887406.6020 f_CB[1]  =    886946.3535 
c_born[12] =    175907.7304 f_CB[12] =    175548.8473 c_born[4] =    347178.5732 
f_CB[4]  =    348171.5001
------------ Step          12800 ----- CPU =     2582.451 (sec) -------------
Step     =          12800 Temp     =       298.4158 Press    =       335.2548 
f_APR    =       256.3484 c_born[1] =    890198.7903 f_CB[1]  =    886968.6062 
c_born[12] =    175299.7992 f_CB[12] =    175531.9773 c_born[4] =    346641.6288 
f_CB[4]  =    348145.8723
------------ Step          12900 ----- CPU =     2605.393 (sec) -------------
Step     =          12900 Temp     =       305.1429 Press    =     -1131.5399 
f_APR    =       254.6465 c_born[1] =    894920.3474 f_CB[1]  =    886974.4285 
c_born[12] =    174983.4464 f_CB[12] =    175526.0694 c_born[4] =    346508.9521 
f_CB[4]  =    348135.9324
------------ Step          13000 ----- CPU =     2628.232 (sec) -------------
Step     =          13000 Temp     =       301.4104 Press    =      -144.0203 
f_APR    =       254.5991 c_born[1] =    889974.9975 f_CB[1]  =    887005.4337 
c_born[12] =    172470.9147 f_CB[12] =    175516.4171 c_born[4] =    344499.8024 
f_CB[4]  =    348120.5058
------------ Step          13100 ----- CPU =      2653.05 (sec) -------------
Step     =          13100 Temp     =       302.5004 Press    =      -784.2613 
f_APR    =       260.0183 c_born[1] =    890389.5964 f_CB[1]  =    887007.1067 
c_born[12] =    172735.3899 f_CB[12] =    175509.7034 c_born[4] =    343505.1683 
f_CB[4]  =    348108.2460
------------ Step          13200 ----- CPU =     2675.306 (sec) -------------
Step     =          13200 Temp     =       297.4623 Press    =       147.6963 
f_APR    =       262.1441 c_born[1] =    890727.2005 f_CB[1]  =    887017.5090 
c_born[12] =    173629.2368 f_CB[12] =    175500.2701 c_born[4] =    346184.0211 
f_CB[4]  =    348094.0793
------------ Step          13300 ----- CPU =     2700.235 (sec) -------------
Step     =          13300 Temp     =       296.4141 Press    =       821.4050 
f_APR    =       267.4627 c_born[1] =    888330.3660 f_CB[1]  =    887058.4849 
c_born[12] =    174377.4675 f_CB[12] =    175490.1656 c_born[4] =    347565.1111 
f_CB[4]  =    348080.5422
------------ Step          13400 ----- CPU =     2724.612 (sec) -------------
Step     =          13400 Temp     =       302.0316 Press    =       724.7916 
f_APR    =       273.2842 c_born[1] =    889217.2501 f_CB[1]  =    887054.9710 
c_born[12] =    174870.6885 f_CB[12] =    175486.5617 c_born[4] =    347530.6696 
f_CB[4]  =    348083.0121
------------ Step          13500 ----- CPU =       2746.9 (sec) -------------
Step     =          13500 Temp     =       297.3303 Press    =       500.9305 
f_APR    =       274.9851 c_born[1] =    886405.6221 f_CB[1]  =    887082.6399 
c_born[12] =    175347.8321 f_CB[12] =    175481.3916 c_born[4] =    348048.8218 
f_CB[4]  =    348077.4556
------------ Step          13600 ----- CPU =     2769.655 (sec) -------------
Step     =          13600 Temp     =       297.5191 Press    =      -572.9140 
f_APR    =       269.4759 c_born[1] =    880497.1792 f_CB[1]  =    887063.9346 
c_born[12] =    176835.2134 f_CB[12] =    175486.0102 c_born[4] =    349896.5184 
f_CB[4]  =    348081.9184
------------ Step          13700 ----- CPU =     2792.755 (sec) -------------
Step     =          13700 Temp     =       296.8752 Press    =      -491.4634 
f_APR    =       271.0293 c_born[1] =    883061.6963 f_CB[1]  =    887042.5484 
c_born[12] =    177426.7964 f_CB[12] =    175494.9736 c_born[4] =    350012.3750 
f_CB[4]  =    348093.0494
------------ Step          13800 ----- CPU =     2817.288 (sec) -------------
Step     =          13800 Temp     =       301.5455 Press    =      -755.2337 
f_APR    =       279.8726 c_born[1] =    882421.8013 f_CB[1]  =    887016.6001 
c_born[12] =    175195.3970 f_CB[12] =    175497.4167 c_born[4] =    348078.6519 
f_CB[4]  =    348096.7838
------------ Step          13900 ----- CPU =     2840.289 (sec) -------------
Step     =          13900 Temp     =       301.6783 Press    =      1389.4442 
f_APR    =       285.6342 c_born[1] =    878255.2649 f_CB[1]  =    886972.6472 
c_born[12] =    176825.2128 f_CB[12] =    175499.1098 c_born[4] =    350528.4581 
f_CB[4]  =    348106.8192
------------ Step          14000 ----- CPU =     2862.204 (sec) -------------
Step     =          14000 Temp     =       307.1966 Press    =       -55.9491 
f_APR    =       287.7158 c_born[1] =    883166.0336 f_CB[1]  =    886942.7619 
c_born[12] =    175609.7382 f_CB[12] =    175496.5423 c_born[4] =    348722.3189 
f_CB[4]  =    348107.1629
------------ Step          14100 ----- CPU =     2885.265 (sec) -------------
Step     =          14100 Temp     =       299.2452 Press    =      1642.4469 
f_APR    =       292.7951 c_born[1] =    895661.2048 f_CB[1]  =    886958.7425 
c_born[12] =    175402.2640 f_CB[12] =    175491.2654 c_born[4] =    347263.8198 
f_CB[4]  =    348101.3602
------------ Step          14200 ----- CPU =     2908.219 (sec) -------------
Step     =          14200 Temp     =       294.3866 Press    =       743.9378 
f_APR    =       301.9943 c_born[1] =    887408.0506 f_CB[1]  =    886980.2383 
c_born[12] =    172813.2919 f_CB[12] =    175486.9010 c_born[4] =    345907.5425 
f_CB[4]  =    348097.7593
------------ Step          14300 ----- CPU =     2930.507 (sec) -------------
Step     =          14300 Temp     =       295.3151 Press    =      -555.6355 
f_APR    =       298.2191 c_born[1] =    890122.0579 f_CB[1]  =    886959.8018 
c_born[12] =    178751.5755 f_CB[12] =    175495.5957 c_born[4] =    351084.0043 
f_CB[4]  =    348111.3457
------------ Step          14400 ----- CPU =     2954.185 (sec) -------------
Step     =          14400 Temp     =       286.4690 Press    =      -114.5371 
f_APR    =       299.4192 c_born[1] =    883578.2234 f_CB[1]  =    886942.3701 
c_born[12] =    175896.4647 f_CB[12] =    175505.5221 c_born[4] =    348914.7282 
f_CB[4]  =    348125.2202
------------ Step          14500 ----- CPU =     2976.851 (sec) -------------
Step     =          14500 Temp     =       300.9720 Press    =       666.9820 
f_APR    =       299.0811 c_born[1] =    888846.1054 f_CB[1]  =    886944.3691 
c_born[12] =    176603.8624 f_CB[12] =    175510.7073 c_born[4] =    349073.9553 
f_CB[4]  =    348131.5483
------------ Step          14600 ----- CPU =     2998.991 (sec) -------------
Step     =          14600 Temp     =       298.4663 Press    =       935.4061 
f_APR    =       301.5361 c_born[1] =    887084.2480 f_CB[1]  =    886923.0938 
c_born[12] =    177837.8862 f_CB[12] =    175525.3504 c_born[4] =    350532.7714 
f_CB[4]  =    348148.5073
------------ Step          14700 ----- CPU =     3022.893 (sec) -------------
Step     =          14700 Temp     =       298.4004 Press    =     -1443.2708 
f_APR    =       300.3493 c_born[1] =    888677.3525 f_CB[1]  =    886935.4646 
c_born[12] =    180267.3076 f_CB[12] =    175550.6240 c_born[4] =    352735.0944 
f_CB[4]  =    348172.1708
------------ Step          14800 ----- CPU =     3046.243 (sec) -------------
Step     =          14800 Temp     =       306.9969 Press    =       138.0375 
f_APR    =       298.0995 c_born[1] =    892696.9018 f_CB[1]  =    886933.6636 
c_born[12] =    176391.3900 f_CB[12] =    175562.5893 c_born[4] =    348647.0911 
f_CB[4]  =    348184.7058
------------ Step          14900 ----- CPU =     3067.921 (sec) -------------
Step     =          14900 Temp     =       298.3218 Press    =      1397.2781 
f_APR    =       298.0521 c_born[1] =    894234.2887 f_CB[1]  =    886956.9876 
c_born[12] =    174555.0764 f_CB[12] =    175566.8498 c_born[4] =    346668.6410 
f_CB[4]  =    348190.9028
------------ Step          15000 ----- CPU =      3089.91 (sec) -------------
Step     =          15000 Temp     =       299.3516 Press    =      1122.6548 
f_APR    =       297.0538 c_born[1] =    902780.6384 f_CB[1]  =    886982.4657 
c_born[12] =    176758.6334 f_CB[12] =    175572.6286 c_born[4] =    348621.5633 
f_CB[4]  =    348196.3926
------------ Step          15100 ----- CPU =     3112.156 (sec) -------------
Step     =          15100 Temp     =       295.0113 Press    =       308.0419 
f_APR    =       301.8305 c_born[1] =    888085.9275 f_CB[1]  =    887020.0297 
c_born[12] =    175902.3085 f_CB[12] =    175582.5631 c_born[4] =    348313.5215 
f_CB[4]  =    348204.2579
------------ Step          15200 ----- CPU =     3133.883 (sec) -------------
Step     =          15200 Temp     =       300.3912 Press    =       689.7943 
f_APR    =       303.7785 c_born[1] =    881312.6207 f_CB[1]  =    887053.0484 
c_born[12] =    176583.3657 f_CB[12] =    175581.4417 c_born[4] =    349833.5697 
f_CB[4]  =    348199.0957
------------ Step          15300 ----- CPU =     3156.132 (sec) -------------
Step     =          15300 Temp     =       302.0610 Press    =      3998.0913 
f_APR    =       308.3512 c_born[1] =    891404.5287 f_CB[1]  =    887066.4446 
c_born[12] =    173041.6064 f_CB[12] =    175571.9092 c_born[4] =    345559.4091 
f_CB[4]  =    348190.6094
------------ Step          15400 ----- CPU =     3178.416 (sec) -------------
Step     =          15400 Temp     =       304.9332 Press    =      3515.9660 
f_APR    =       313.2310 c_born[1] =    886888.7818 f_CB[1]  =    887070.4498 
c_born[12] =    174507.1838 f_CB[12] =    175554.8567 c_born[4] =    346711.9356 
f_CB[4]  =    348171.8129
------------ Step          15500 ----- CPU =     3200.113 (sec) -------------
Step     =          15500 Temp     =       295.7240 Press    =      1568.1814 
f_APR    =       319.0876 c_born[1] =    887091.7996 f_CB[1]  =    887085.1432 
c_born[12] =    171787.5635 f_CB[12] =    175543.1423 c_born[4] =    344840.1913 
f_CB[4]  =    348157.8876
------------ Step          15600 ----- CPU =     3223.442 (sec) -------------
Step     =          15600 Temp     =       297.4140 Press    =      -735.4749 
f_APR    =       320.7745 c_born[1] =    894030.4328 f_CB[1]  =    887104.0532 
c_born[12] =    173594.4887 f_CB[12] =    175518.1607 c_born[4] =    345909.2030 
f_CB[4]  =    348134.5583
------------ Step          15700 ----- CPU =     3248.277 (sec) -------------
Step     =          15700 Temp     =       299.5656 Press    =       433.3318 
f_APR    =       325.9380 c_born[1] =    883122.8277 f_CB[1]  =    887126.3411 
c_born[12] =    173750.9763 f_CB[12] =    175502.5949 c_born[4] =    346788.6315 
f_CB[4]  =    348118.1393
------------ Step          15800 ----- CPU =     3274.378 (sec) -------------
Step     =          15800 Temp     =       305.9853 Press    =      1894.9003 
f_APR    =       329.2222 c_born[1] =    885869.8626 f_CB[1]  =    887121.9792 
c_born[12] =    174730.8595 f_CB[12] =    175495.1768 c_born[4] =    347057.1782 
f_CB[4]  =    348111.8019
------------ Step          15900 ----- CPU =     3297.561 (sec) -------------
Step     =          15900 Temp     =       305.5838 Press    =       -18.3585 
f_APR    =       330.8270 c_born[1] =    891592.1092 f_CB[1]  =    887163.3239 
c_born[12] =    174145.2466 f_CB[12] =    175481.9730 c_born[4] =    346629.6470 
f_CB[4]  =    348097.9168
------------ Step          16000 ----- CPU =     3321.576 (sec) -------------
Step     =          16000 Temp     =       302.1873 Press    =      2860.5150 
f_APR    =       329.7598 c_born[1] =    886365.5402 f_CB[1]  =    887134.5537 
c_born[12] =    173481.8529 f_CB[12] =    175473.6637 c_born[4] =    346591.1865 
f_CB[4]  =    348095.0363
------------ Step          16100 ----- CPU =      3344.46 (sec) -------------
Step     =          16100 Temp     =       298.1218 Press    =      1259.4888 
f_APR    =       333.9887 c_born[1] =    889880.6474 f_CB[1]  =    887134.7811 
c_born[12] =    171353.0704 f_CB[12] =    175460.9820 c_born[4] =    343683.8351 
f_CB[4]  =    348083.5452
------------ Step          16200 ----- CPU =     3367.446 (sec) -------------
Step     =          16200 Temp     =       295.9781 Press    =      1895.7059 
f_APR    =       336.2721 c_born[1] =    893834.6515 f_CB[1]  =    887140.1330 
c_born[12] =    174785.1018 f_CB[12] =    175443.3575 c_born[4] =    346608.4616 
f_CB[4]  =    348068.0767
------------ Step          16300 ----- CPU =     3390.437 (sec) -------------
Step     =          16300 Temp     =       302.8927 Press    =       701.4415 
f_APR    =       335.0962 c_born[1] =    883768.1635 f_CB[1]  =    887139.6815 
c_born[12] =    174786.9869 f_CB[12] =    175430.1547 c_born[4] =    347657.3588 
f_CB[4]  =    348055.1497
------------ Step          16400 ----- CPU =     3412.813 (sec) -------------
Step     =          16400 Temp     =       301.5932 Press    =      1644.6685 
f_APR    =       335.5117 c_born[1] =    891799.0232 f_CB[1]  =    887118.8893 
c_born[12] =    174904.1577 f_CB[12] =    175432.5216 c_born[4] =    346712.2280 
f_CB[4]  =    348057.8515
------------ Step          16500 ----- CPU =     3434.324 (sec) -------------
Step     =          16500 Temp     =       305.5138 Press    =      1766.3274 
f_APR    =       336.3514 c_born[1] =    891129.8639 f_CB[1]  =    887135.0831 
c_born[12] =    178107.0129 f_CB[12] =    175433.1258 c_born[4] =    349410.9390 
f_CB[4]  =    348054.0979
------------ Step          16600 ----- CPU =     3454.074 (sec) -------------
Step     =          16600 Temp     =       300.6002 Press    =       655.3895 
f_APR    =       335.5710 c_born[1] =    876879.1681 f_CB[1]  =    887119.3850 
c_born[12] =    173982.8400 f_CB[12] =    175430.8536 c_born[4] =    347467.8634 
f_CB[4]  =    348049.5574
------------ Step          16700 ----- CPU =      3474.94 (sec) -------------
Step     =          16700 Temp     =       301.2514 Press    =      1207.0691 
f_APR    =       341.1193 c_born[1] =    885854.6227 f_CB[1]  =    887120.6607 
c_born[12] =    171826.6167 f_CB[12] =    175420.9887 c_born[4] =    343790.3510 
f_CB[4]  =    348038.8445
------------ Step          16800 ----- CPU =     3501.975 (sec) -------------
Step     =          16800 Temp     =       300.7428 Press    =       112.7243 
f_APR    =       340.4703 c_born[1] =    884767.4087 f_CB[1]  =    887118.2119 
c_born[12] =    174060.8068 f_CB[12] =    175410.5399 c_born[4] =    346255.7908 
f_CB[4]  =    348025.6850
------------ Step          16900 ----- CPU =     3520.015 (sec) -------------
Step     =          16900 Temp     =       294.7858 Press    =      1542.3105 
f_APR    =       337.6831 c_born[1] =    887154.5908 f_CB[1]  =    887118.4300 
c_born[12] =    176223.3483 f_CB[12] =    175409.8903 c_born[4] =    348271.1221 
f_CB[4]  =    348021.3212
------------ Step          17000 ----- CPU =     3537.292 (sec) -------------
Step     =          17000 Temp     =       299.0235 Press    =      1897.8504 
f_APR    =       338.7756 c_born[1] =    891244.1175 f_CB[1]  =    887156.3581 
c_born[12] =    176162.7135 f_CB[12] =    175412.6426 c_born[4] =    347935.0600 
f_CB[4]  =    348018.1043
------------ Step          17100 ----- CPU =     3555.195 (sec) -------------
Step     =          17100 Temp     =       298.5801 Press    =      1601.1774 
f_APR    =       341.1527 c_born[1] =    885440.0789 f_CB[1]  =    887149.6038 
c_born[12] =    173767.0356 f_CB[12] =    175419.2221 c_born[4] =    345686.3127 
f_CB[4]  =    348022.3966
------------ Step          17200 ----- CPU =     3572.785 (sec) -------------
Step     =          17200 Temp     =       294.2216 Press    =       329.8722 
f_APR    =       341.9023 c_born[1] =    885635.4943 f_CB[1]  =    887151.6853 
c_born[12] =    175325.1358 f_CB[12] =    175413.3041 c_born[4] =    347269.7526 
f_CB[4]  =    348013.0992
------------ Step          17300 ----- CPU =     3590.278 (sec) -------------
Step     =          17300 Temp     =       306.2192 Press    =       513.1128 
f_APR    =       341.4578 c_born[1] =    885041.1586 f_CB[1]  =    887153.2941 
c_born[12] =    175878.6478 f_CB[12] =    175409.1983 c_born[4] =    348351.4234 
f_CB[4]  =    348006.8787
------------ Step          17400 ----- CPU =      3607.52 (sec) -------------
Step     =          17400 Temp     =       305.1715 Press    =      1915.2823 
f_APR    =       343.6433 c_born[1] =    890958.5950 f_CB[1]  =    887136.9687 
c_born[12] =    176434.7102 f_CB[12] =    175416.4643 c_born[4] =    348766.4932 
f_CB[4]  =    348013.4465
------------ Step          17500 ----- CPU =     3624.546 (sec) -------------
Step     =          17500 Temp     =       297.2822 Press    =      -978.0853 
f_APR    =       350.0268 c_born[1] =    876256.3853 f_CB[1]  =    887119.9991 
c_born[12] =    176154.4665 f_CB[12] =    175420.6111 c_born[4] =    350007.8114 
f_CB[4]  =    348019.8385
------------ Step          17600 ----- CPU =     3641.751 (sec) -------------
Step     =          17600 Temp     =       293.4951 Press    =      -763.3524 
f_APR    =       350.2573 c_born[1] =    877378.8825 f_CB[1]  =    887053.3421 
c_born[12] =    174495.5232 f_CB[12] =    175419.8722 c_born[4] =    347516.3796 
f_CB[4]  =    348022.4948
------------ Step          17700 ----- CPU =     3658.904 (sec) -------------
Step     =          17700 Temp     =       295.7319 Press    =      1136.5475 
f_APR    =       349.4913 c_born[1] =    889211.8604 f_CB[1]  =    887040.3277 
c_born[12] =    172586.1197 f_CB[12] =    175409.3543 c_born[4] =    344251.6921 
f_CB[4]  =    348009.8153
------------ Step          17800 ----- CPU =     3675.894 (sec) -------------
Step     =          17800 Temp     =       301.1081 Press    =       516.9148 
f_APR    =       348.4940 c_born[1] =    877158.5253 f_CB[1]  =    887015.2701 
c_born[12] =    172979.9638 f_CB[12] =    175399.0251 c_born[4] =    346304.7281 
f_CB[4]  =    347999.2308
------------ Step          17900 ----- CPU =     3693.269 (sec) -------------
Step     =          17900 Temp     =       313.4735 Press    =       487.9526 
f_APR    =       344.4093 c_born[1] =    886936.5380 f_CB[1]  =    887004.6428 
c_born[12] =    173005.1708 f_CB[12] =    175378.9738 c_born[4] =    345654.8359 
f_CB[4]  =    347978.8254
------------ Step          18000 ----- CPU =     3711.841 (sec) -------------
Step     =          18000 Temp     =       300.7614 Press    =      2803.9447 
f_APR    =       345.3093 c_born[1] =    880773.3490 f_CB[1]  =    886996.3325 
c_born[12] =    174998.7082 f_CB[12] =    175366.4140 c_born[4] =    347969.4352 
f_CB[4]  =    347967.2471
------------ Step          18100 ----- CPU =     3729.012 (sec) -------------
Step     =          18100 Temp     =       296.9669 Press    =     -1202.6159 
f_APR    =       343.4252 c_born[1] =    876431.4249 f_CB[1]  =    886972.4211 
c_born[12] =    174104.8539 f_CB[12] =    175370.5105 c_born[4] =    348349.6739 
f_CB[4]  =    347974.8658
------------ Step          18200 ----- CPU =     3746.015 (sec) -------------
Step     =          18200 Temp     =       293.0731 Press    =      1906.3665 
f_APR    =       347.0383 c_born[1] =    888641.5818 f_CB[1]  =    886941.4214 
c_born[12] =    175905.2031 f_CB[12] =    175375.5949 c_born[4] =    348183.8751 
f_CB[4]  =    347982.4102
------------ Step          18300 ----- CPU =     3763.163 (sec) -------------
Step     =          18300 Temp     =       298.0014 Press    =       944.9872 
f_APR    =       345.9464 c_born[1] =    881633.7729 f_CB[1]  =    886959.9367 
c_born[12] =    175055.6686 f_CB[12] =    175377.0886 c_born[4] =    347955.9949 
f_CB[4]  =    347984.3656
------------ Step          18400 ----- CPU =     3780.241 (sec) -------------
Step     =          18400 Temp     =       303.8621 Press    =       721.1038 
f_APR    =       345.5070 c_born[1] =    883814.9638 f_CB[1]  =    886940.9818 
c_born[12] =    174233.0898 f_CB[12] =    175370.4854 c_born[4] =    347156.1719 
f_CB[4]  =    347978.4709
------------ Step          18500 ----- CPU =      3797.32 (sec) -------------
Step     =          18500 Temp     =       297.8428 Press    =      1448.5198 
f_APR    =       343.3962 c_born[1] =    886045.1409 f_CB[1]  =    886931.5145 
c_born[12] =    175510.9110 f_CB[12] =    175365.9060 c_born[4] =    347545.1439 
f_CB[4]  =    347973.3114
------------ Step          18600 ----- CPU =     3814.594 (sec) -------------
Step     =          18600 Temp     =       294.5925 Press    =      2637.4712 
f_APR    =       342.3420 c_born[1] =    884657.7281 f_CB[1]  =    886910.3511 
c_born[12] =    177328.2750 f_CB[12] =    175369.5193 c_born[4] =    350181.1627 
f_CB[4]  =    347978.1278
------------ Step          18700 ----- CPU =     3832.802 (sec) -------------
Step     =          18700 Temp     =       303.4694 Press    =      -302.7863 
f_APR    =       349.6986 c_born[1] =    881991.7286 f_CB[1]  =    886864.6769 
c_born[12] =    175454.2226 f_CB[12] =    175380.8557 c_born[4] =    348228.0354 
f_CB[4]  =    347994.2960
------------ Step          18800 ----- CPU =     3850.353 (sec) -------------
Step     =          18800 Temp     =       296.9968 Press    =      -365.2111 
f_APR    =       347.5325 c_born[1] =    881905.9763 f_CB[1]  =    886861.7953 
c_born[12] =    175079.6128 f_CB[12] =    175377.7705 c_born[4] =    348236.5714 
f_CB[4]  =    347990.1912
------------ Step          18900 ----- CPU =     3867.427 (sec) -------------
Step     =          18900 Temp     =       299.4006 Press    =      2470.2135 
f_APR    =       351.0004 c_born[1] =    882851.4163 f_CB[1]  =    886835.4961 
c_born[12] =    175744.9297 f_CB[12] =    175375.4078 c_born[4] =    347748.4517 
f_CB[4]  =    347987.9901
------------ Step          19000 ----- CPU =     3884.705 (sec) -------------
Step     =          19000 Temp     =       302.9772 Press    =       521.4930 
f_APR    =       348.2976 c_born[1] =    880332.9312 f_CB[1]  =    886803.5278 
c_born[12] =    174160.8412 f_CB[12] =    175370.0036 c_born[4] =    346955.9175 
f_CB[4]  =    347982.5311
------------ Step          19100 ----- CPU =     3901.588 (sec) -------------
Step     =          19100 Temp     =       304.2837 Press    =        49.5504 
f_APR    =       347.7315 c_born[1] =    886348.3726 f_CB[1]  =    886792.7683 
c_born[12] =    178128.6064 f_CB[12] =    175373.1719 c_born[4] =    350316.8335 
f_CB[4]  =    347983.8096
------------ Step          19200 ----- CPU =     3918.695 (sec) -------------
Step     =          19200 Temp     =       302.1214 Press    =      2021.0961 
f_APR    =       351.1556 c_born[1] =    885082.2535 f_CB[1]  =    886754.7451 
c_born[12] =    175465.6106 f_CB[12] =    175381.9030 c_born[4] =    347641.8135 
f_CB[4]  =    347994.7592
------------ Step          19300 ----- CPU =     3935.893 (sec) -------------
Step     =          19300 Temp     =       301.5353 Press    =      2785.2121 
f_APR    =       352.7874 c_born[1] =    879231.2179 f_CB[1]  =    886721.2983 
c_born[12] =    175433.5557 f_CB[12] =    175388.8943 c_born[4] =    347917.6616 
f_CB[4]  =    348002.2449
------------ Step          19400 ----- CPU =      3952.97 (sec) -------------
Step     =          19400 Temp     =       291.7624 Press    =       877.6868 
f_APR    =       354.7001 c_born[1] =    883594.9634 f_CB[1]  =    886705.2467 
c_born[12] =    173416.0434 f_CB[12] =    175382.3375 c_born[4] =    345798.4224 
f_CB[4]  =    347995.3764
------------ Step          19500 ----- CPU =       3969.9 (sec) -------------
Step     =          19500 Temp     =       296.5169 Press    =      1640.7050 
f_APR    =       353.2307 c_born[1] =    888464.0087 f_CB[1]  =    886707.1890 
c_born[12] =    172749.8577 f_CB[12] =    175373.8068 c_born[4] =    344519.5690 
f_CB[4]  =    347983.3579
------------ Step          19600 ----- CPU =      3987.04 (sec) -------------
Step     =          19600 Temp     =       297.9989 Press    =     -1805.7075 
f_APR    =       353.6490 c_born[1] =    891068.6567 f_CB[1]  =    886716.1131 
c_born[12] =    174274.1756 f_CB[12] =    175365.0739 c_born[4] =    346049.8513 
f_CB[4]  =    347971.2426
------------ Step          19700 ----- CPU =     4004.189 (sec) -------------
Step     =          19700 Temp     =       299.2356 Press    =      -360.3396 
f_APR    =       353.6246 c_born[1] =    880804.7235 f_CB[1]  =    886719.2189 
c_born[12] =    172861.3220 f_CB[12] =    175356.7657 c_born[4] =    345923.7652 
f_CB[4]  =    347963.0532
------------ Step          19800 ----- CPU =     4021.301 (sec) -------------
Step     =          19800 Temp     =       303.0494 Press    =      2037.0298 
f_APR    =       356.2105 c_born[1] =    887975.5149 f_CB[1]  =    886705.7328 
c_born[12] =    175823.7036 f_CB[12] =    175355.5205 c_born[4] =    347637.1222 
f_CB[4]  =    347960.9926
------------ Step          19900 ----- CPU =     4038.483 (sec) -------------
Step     =          19900 Temp     =       304.9072 Press    =       476.3562 
f_APR    =       355.9020 c_born[1] =    879965.7736 f_CB[1]  =    886667.9903 
c_born[12] =    173786.4214 f_CB[12] =    175354.0046 c_born[4] =    346506.0337 
f_CB[4]  =    347959.7324
------------ Step          20000 ----- CPU =     4055.432 (sec) -------------
Step     =          20000 Temp     =       299.7721 Press    =       725.9267 
f_APR    =       357.2572 c_born[1] =    897882.2613 f_CB[1]  =    886675.8003 
c_born[12] =    174690.5038 f_CB[12] =    175347.2406 c_born[4] =    345969.0271 
f_CB[4]  =    347950.5710
------------ Step          20100 ----- CPU =      4072.37 (sec) -------------
Step     =          20100 Temp     =       297.6523 Press    =       966.1898 
f_APR    =       356.3087 c_born[1] =    901865.6595 f_CB[1]  =    886724.3400 
c_born[12] =    172696.9539 f_CB[12] =    175339.0602 c_born[4] =    344774.1409 
f_CB[4]  =    347938.2391
------------ Step          20200 ----- CPU =     4089.396 (sec) -------------
Step     =          20200 Temp     =       289.5054 Press    =      -241.0572 
f_APR    =       355.5891 c_born[1] =    881984.5521 f_CB[1]  =    886725.8672 
c_born[12] =    173303.2761 f_CB[12] =    175326.4106 c_born[4] =    346474.7891 
f_CB[4]  =    347927.1406
------------ Step          20300 ----- CPU =     4106.642 (sec) -------------
Step     =          20300 Temp     =       292.5985 Press    =       506.2210 
f_APR    =       354.4986 c_born[1] =    882690.0729 f_CB[1]  =    886709.7799 
c_born[12] =    173127.1864 f_CB[12] =    175315.7582 c_born[4] =    346002.8614 
f_CB[4]  =    347917.4086
------------ Step          20400 ----- CPU =     4123.742 (sec) -------------
Step     =          20400 Temp     =       298.4606 Press    =      1496.4766 
f_APR    =       356.2796 c_born[1] =    888921.4671 f_CB[1]  =    886700.3146 
c_born[12] =    175523.2090 f_CB[12] =    175306.2971 c_born[4] =    347621.8289 
f_CB[4]  =    347907.9851
------------ Step          20500 ----- CPU =     4142.712 (sec) -------------
Step     =          20500 Temp     =       304.8077 Press    =      1423.9064 
f_APR    =       352.6284 c_born[1] =    897679.3134 f_CB[1]  =    886708.4808 
c_born[12] =    171923.1602 f_CB[12] =    175301.0066 c_born[4] =    343317.7661 
f_CB[4]  =    347901.7325
------------ Step          20600 ----- CPU =     4159.725 (sec) -------------
Step     =          20600 Temp     =       298.9552 Press    =      3040.9767 
f_APR    =       352.1025 c_born[1] =    884317.3667 f_CB[1]  =    886701.7855 
c_born[12] =    171607.8265 f_CB[12] =    175286.8539 c_born[4] =    344214.2090 
f_CB[4]  =    347888.7887
------------ Step          20700 ----- CPU =      4177.12 (sec) -------------
Step     =          20700 Temp     =       295.3611 Press    =      2893.3852 
f_APR    =       355.9536 c_born[1] =    884556.1751 f_CB[1]  =    886687.5540 
c_born[12] =    174969.5538 f_CB[12] =    175280.9011 c_born[4] =    347904.0246 
f_CB[4]  =    347885.9179
------------ Step          20800 ----- CPU =     4194.647 (sec) -------------
Step     =          20800 Temp     =       290.5300 Press    =       427.6119 
f_APR    =       357.4186 c_born[1] =    891348.3371 f_CB[1]  =    886704.6362 
c_born[12] =    173137.0153 f_CB[12] =    175277.1612 c_born[4] =    344876.8568 
f_CB[4]  =    347881.3099
------------ Step          20900 ----- CPU =     4212.536 (sec) -------------
Step     =          20900 Temp     =       297.0186 Press    =      1328.6923 
f_APR    =       357.0086 c_born[1] =    887373.1624 f_CB[1]  =    886716.3699 
c_born[12] =    173270.8770 f_CB[12] =    175270.4340 c_born[4] =    345835.6179 
f_CB[4]  =    347872.9447
------------ Step          21000 ----- CPU =     4229.283 (sec) -------------
Step     =          21000 Temp     =       307.4330 Press    =      1103.4050 
f_APR    =       352.7639 c_born[1] =    879975.6997 f_CB[1]  =    886713.2396 
c_born[12] =    175369.3887 f_CB[12] =    175267.7782 c_born[4] =    348294.1357 
f_CB[4]  =    347870.6802
------------ Step          21100 ----- CPU =     4246.706 (sec) -------------
Step     =          21100 Temp     =       306.6535 Press    =       559.9809 
f_APR    =       352.7216 c_born[1] =    881155.3452 f_CB[1]  =    886698.5832 
c_born[12] =    174718.0654 f_CB[12] =    175271.3293 c_born[4] =    347183.0840 
f_CB[4]  =    347875.1157
------------ Step          21200 ----- CPU =     4263.597 (sec) -------------
Step     =          21200 Temp     =       298.6635 Press    =     -1856.0017 
f_APR    =       349.6922 c_born[1] =    890597.0211 f_CB[1]  =    886711.1170 
c_born[12] =    172695.3897 f_CB[12] =    175257.6650 c_born[4] =    344505.6700 
f_CB[4]  =    347858.0342
------------ Step          21300 ----- CPU =      4280.65 (sec) -------------
Step     =          21300 Temp     =       300.6655 Press    =       725.9473 
f_APR    =       349.7871 c_born[1] =    895967.8861 f_CB[1]  =    886742.6331 
c_born[12] =    171174.9887 f_CB[12] =    175245.8092 c_born[4] =    342496.2067 
f_CB[4]  =    347842.0558
------------ Step          21400 ----- CPU =     4297.799 (sec) -------------
Step     =          21400 Temp     =       299.3916 Press    =      -940.5990 
f_APR    =       348.7354 c_born[1] =    886945.6463 f_CB[1]  =    886738.9001 
c_born[12] =    172785.1866 f_CB[12] =    175232.9242 c_born[4] =    345012.5482 
f_CB[4]  =    347828.9438
------------ Step          21500 ----- CPU =     4314.806 (sec) -------------
Step     =          21500 Temp     =       296.7052 Press    =      1450.3347 
f_APR    =       348.2270 c_born[1] =    880991.8225 f_CB[1]  =    886764.6666 
c_born[12] =    171157.8385 f_CB[12] =    175215.2449 c_born[4] =    343588.8978 
f_CB[4]  =    347808.6539
------------ Step          21600 ----- CPU =     4331.693 (sec) -------------
Step     =          21600 Temp     =       307.5593 Press    =      -132.4331 
f_APR    =       349.2407 c_born[1] =    882332.3962 f_CB[1]  =    886742.0038 
c_born[12] =    173654.5174 f_CB[12] =    175201.8532 c_born[4] =    347538.8581 
f_CB[4]  =    347800.1307
------------ Step          21700 ----- CPU =     4349.029 (sec) -------------
Step     =          21700 Temp     =       299.1803 Press    =      -390.0522 
f_APR    =       346.1833 c_born[1] =    881492.9745 f_CB[1]  =    886707.9132 
c_born[12] =    175942.9315 f_CB[12] =    175201.5006 c_born[4] =    349901.3732 
f_CB[4]  =    347806.0450
------------ Step          21800 ----- CPU =     4366.132 (sec) -------------
Step     =          21800 Temp     =       297.5248 Press    =      2223.6321 
f_APR    =       347.6297 c_born[1] =    892824.3930 f_CB[1]  =    886747.4672 
c_born[12] =    172120.5541 f_CB[12] =    175197.3944 c_born[4] =    344542.0989 
f_CB[4]  =    347800.7938
[...]
c_born[12] =    174921.4275 f_CB[12] =    176607.7479 c_born[4] =    347359.9467 
f_CB[4]  =    349182.2648
------------ Step          54700 ----- CPU =     10273.96 (sec) -------------
Step     =          54700 Temp     =       299.2952 Press    =      -969.8618 
f_APR    =       255.8280 c_born[1] =    883260.5565 f_CB[1]  =    886022.8470 
c_born[12] =    177375.1992 f_CB[12] =    176607.0224 c_born[4] =    349763.6255 
f_CB[4]  =    349179.8886
------------ Step          54800 ----- CPU =     10292.32 (sec) -------------
Step     =          54800 Temp     =       290.2038 Press    =      -587.3860 
f_APR    =       255.8477 c_born[1] =    884935.0413 f_CB[1]  =    886028.9922 
c_born[12] =    176596.2050 f_CB[12] =    176607.2396 c_born[4] =    349564.0933 
f_CB[4]  =    349179.0703
------------ Step          54900 ----- CPU =      10310.6 (sec) -------------
Step     =          54900 Temp     =       291.3201 Press    =     -1049.8474 
f_APR    =       255.3937 c_born[1] =    898720.7972 f_CB[1]  =    886040.1673 
c_born[12] =    175408.5303 f_CB[12] =    176605.3358 c_born[4] =    346828.4506 
f_CB[4]  =    349176.4441
------------ Step          55000 ----- CPU =     10328.89 (sec) -------------
Step     =          55000 Temp     =       307.7521 Press    =      -345.1045 
f_APR    =       254.1030 c_born[1] =    889713.9636 f_CB[1]  =    886047.3309 
c_born[12] =    177191.5417 f_CB[12] =    176601.7754 c_born[4] =    348415.0177 
f_CB[4]  =    349171.9199
------------ Step          55100 ----- CPU =     10347.11 (sec) -------------
Step     =          55100 Temp     =       300.7785 Press    =       148.6296 
f_APR    =       253.9688 c_born[1] =    879625.6863 f_CB[1]  =    886043.4773 
c_born[12] =    177888.0599 f_CB[12] =    176603.9762 c_born[4] =    350615.1672 
f_CB[4]  =    349172.9026
------------ Step          55200 ----- CPU =     10365.43 (sec) -------------
Step     =          55200 Temp     =       302.5317 Press    =       250.7048 
f_APR    =       254.5737 c_born[1] =    882072.9278 f_CB[1]  =    886039.2148 
c_born[12] =    178009.4916 f_CB[12] =    176608.0632 c_born[4] =    349753.3218 
f_CB[4]  =    349176.2559
------------ Step          55300 ----- CPU =     10383.67 (sec) -------------
Step     =          55300 Temp     =       302.9952 Press    =       116.2904 
f_APR    =       255.0418 c_born[1] =    891260.8990 f_CB[1]  =    886043.7587 
c_born[12] =    177553.4419 f_CB[12] =    176609.8460 c_born[4] =    350197.4169 
f_CB[4]  =    349177.6684
------------ Step          55400 ----- CPU =     10401.86 (sec) -------------
Step     =          55400 Temp     =       302.8080 Press    =       240.1698 
f_APR    =       255.5191 c_born[1] =    885692.5517 f_CB[1]  =    886055.0173 
c_born[12] =    178212.9734 f_CB[12] =    176609.4476 c_born[4] =    350061.2868 
f_CB[4]  =    349175.5285
------------ Step          55500 ----- CPU =     10420.13 (sec) -------------
Step     =          55500 Temp     =       297.4192 Press    =     -1465.6079 
f_APR    =       255.2172 c_born[1] =    881700.3390 f_CB[1]  =    886051.3270 
c_born[12] =    176989.7760 f_CB[12] =    176608.6032 c_born[4] =    349932.8856 
f_CB[4]  =    349173.5067
------------ Step          55600 ----- CPU =     10438.49 (sec) -------------
Step     =          55600 Temp     =       303.0554 Press    =      -747.9133 
f_APR    =       256.1166 c_born[1] =    887165.7509 f_CB[1]  =    886044.6676 
c_born[12] =    178148.2920 f_CB[12] =    176610.3945 c_born[4] =    350844.4717 
f_CB[4]  =    349175.5248
------------ Step          55700 ----- CPU =     10456.82 (sec) -------------
Step     =          55700 Temp     =       300.1482 Press    =      -221.8240 
f_APR    =       255.2556 c_born[1] =    891005.8310 f_CB[1]  =    886056.4627 
c_born[12] =    176046.4848 f_CB[12] =    176612.0481 c_born[4] =    347363.2819 
f_CB[4]  =    349175.8216
------------ Step          55800 ----- CPU =     10475.14 (sec) -------------
Step     =          55800 Temp     =       295.2768 Press    =      3020.7487 
f_APR    =       255.8880 c_born[1] =    885552.7998 f_CB[1]  =    886054.3126 
c_born[12] =    173635.3956 f_CB[12] =    176610.4666 c_born[4] =    344981.3233 
f_CB[4]  =    349173.1536
------------ Step          55900 ----- CPU =     10493.37 (sec) -------------
Step     =          55900 Temp     =       297.3465 Press    =      2186.0349 
f_APR    =       256.6598 c_born[1] =    873001.4008 f_CB[1]  =    886040.6920 
c_born[12] =    175477.9985 f_CB[12] =    176606.3237 c_born[4] =    348606.9744 
f_CB[4]  =    349168.8539
------------ Step          56000 ----- CPU =     10511.57 (sec) -------------
Step     =          56000 Temp     =       296.1268 Press    =      1694.5891 
f_APR    =       256.1492 c_born[1] =    887826.3580 f_CB[1]  =    886038.5185 
c_born[12] =    174181.6377 f_CB[12] =    176601.6817 c_born[4] =    345890.1453 
f_CB[4]  =    349163.4165
------------ Step          56100 ----- CPU =     10530.78 (sec) -------------
Step     =          56100 Temp     =       297.0029 Press    =       266.3967 
f_APR    =       256.8354 c_born[1] =    895451.8079 f_CB[1]  =    886041.0574 
c_born[12] =    175972.8660 f_CB[12] =    176599.0789 c_born[4] =    347129.8481 
f_CB[4]  =    349159.5909
------------ Step          56200 ----- CPU =     10550.72 (sec) -------------
Step     =          56200 Temp     =       298.2331 Press    =       701.7916 
f_APR    =       255.9196 c_born[1] =    885030.2369 f_CB[1]  =    886041.3367 
c_born[12] =    179814.5038 f_CB[12] =    176600.9845 c_born[4] =    352380.1983 
f_CB[4]  =    349160.8868
------------ Step          56300 ----- CPU =      10567.2 (sec) -------------
Step     =          56300 Temp     =       302.2109 Press    =      1831.4522 
f_APR    =       255.9496 c_born[1] =    884754.0063 f_CB[1]  =    886044.5737 
c_born[12] =    179710.5823 f_CB[12] =    176604.6174 c_born[4] =    351609.1886 
f_CB[4]  =    349163.2794
------------ Step          56400 ----- CPU =     10583.65 (sec) -------------
Step     =          56400 Temp     =       302.4536 Press    =       774.1044 
f_APR    =       256.5472 c_born[1] =    887027.1487 f_CB[1]  =    886041.7041 
c_born[12] =    178593.0576 f_CB[12] =    176608.4367 c_born[4] =    351182.3650 
f_CB[4]  =    349166.9046
------------ Step          56500 ----- CPU =     10600.18 (sec) -------------
Step     =          56500 Temp     =       306.6546 Press    =     -1289.4607 
f_APR    =       256.6870 c_born[1] =    883400.8319 f_CB[1]  =    886037.8991 
c_born[12] =    177768.0703 f_CB[12] =    176608.9595 c_born[4] =    350192.9311 
f_CB[4]  =    349167.3400
------------ Step          56600 ----- CPU =     10616.66 (sec) -------------
Step     =          56600 Temp     =       307.3433 Press    =       606.2275 
f_APR    =       258.2076 c_born[1] =    892575.4562 f_CB[1]  =    886046.6335 
c_born[12] =    174842.7457 f_CB[12] =    176609.7716 c_born[4] =    345657.0996 
f_CB[4]  =    349166.2533
------------ Step          56700 ----- CPU =     10633.27 (sec) -------------
Step     =          56700 Temp     =       298.4118 Press    =      1498.3544 
f_APR    =       258.1601 c_born[1] =    884593.5516 f_CB[1]  =    886048.4674 
c_born[12] =    174713.1126 f_CB[12] =    176605.6936 c_born[4] =    346602.4191 
f_CB[4]  =    349161.3321
------------ Step          56800 ----- CPU =     10650.13 (sec) -------------
Step     =          56800 Temp     =       296.3220 Press    =       415.3945 
f_APR    =       258.9944 c_born[1] =    892590.5900 f_CB[1]  =    886062.8991 
c_born[12] =    175224.8073 f_CB[12] =    176602.4743 c_born[4] =    346569.3987 
f_CB[4]  =    349156.3027
------------ Step          56900 ----- CPU =     10666.85 (sec) -------------
Step     =          56900 Temp     =       300.3685 Press    =      -538.4520 
f_APR    =       259.5970 c_born[1] =    889899.3895 f_CB[1]  =    886075.5381 
c_born[12] =    177516.2001 f_CB[12] =    176602.5631 c_born[4] =    348806.9944 
f_CB[4]  =    349154.2432
------------ Step          57000 ----- CPU =     10683.51 (sec) -------------
Step     =          57000 Temp     =       302.2722 Press    =      -663.8185 
f_APR    =       258.8145 c_born[1] =    883153.4464 f_CB[1]  =    886074.5653 
c_born[12] =    179358.4652 f_CB[12] =    176605.5270 c_born[4] =    351510.6705 
f_CB[4]  =    349155.8551
------------ Step          57100 ----- CPU =     10700.02 (sec) -------------
Step     =          57100 Temp     =       299.1997 Press    =     -1293.2557 
f_APR    =       258.5829 c_born[1] =    894138.2677 f_CB[1]  =    886081.8263 
c_born[12] =    174789.8736 f_CB[12] =    176607.0905 c_born[4] =    347112.3029 
f_CB[4]  =    349155.9814
------------ Step          57200 ----- CPU =     10717.19 (sec) -------------
Step     =          57200 Temp     =       302.2567 Press    =     -2484.1666 
f_APR    =       257.3169 c_born[1] =    884971.3127 f_CB[1]  =    886083.3974 
c_born[12] =    176620.6878 f_CB[12] =    176606.6739 c_born[4] =    348964.6935 
f_CB[4]  =    349154.4581
------------ Step          57300 ----- CPU =     10733.77 (sec) -------------
Step     =          57300 Temp     =       309.3745 Press    =         3.2820 
f_APR    =       257.2678 c_born[1] =    890437.5581 f_CB[1]  =    886081.8093 
c_born[12] =    175440.1097 f_CB[12] =    176608.8222 c_born[4] =    346668.1638 
f_CB[4]  =    349155.5043
------------ Step          57400 ----- CPU =      10751.4 (sec) -------------
Step     =          57400 Temp     =       294.3463 Press    =       600.6858 
f_APR    =       259.1244 c_born[1] =    889706.7053 f_CB[1]  =    886082.5870 
c_born[12] =    180017.3451 f_CB[12] =    176612.8392 c_born[4] =    351227.6639 
f_CB[4]  =    349158.1784
------------ Step          57500 ----- CPU =     10768.02 (sec) -------------
Step     =          57500 Temp     =       299.4816 Press    =      -700.7665 
f_APR    =       259.6252 c_born[1] =    885119.5829 f_CB[1]  =    886085.6889 
c_born[12] =    178497.7079 f_CB[12] =    176616.8708 c_born[4] =    350050.2708 
f_CB[4]  =    349160.3033
------------ Step          57600 ----- CPU =     10785.03 (sec) -------------
Step     =          57600 Temp     =       301.7079 Press    =       336.0958 
f_APR    =       259.2771 c_born[1] =    886522.0811 f_CB[1]  =    886078.5592 
c_born[12] =    176757.8489 f_CB[12] =    176620.0418 c_born[4] =    348620.2663 
f_CB[4]  =    349162.9933
------------ Step          57700 ----- CPU =     10802.04 (sec) -------------
Step     =          57700 Temp     =       302.8164 Press    =       391.9946 
f_APR    =       257.5660 c_born[1] =    884630.5381 f_CB[1]  =    886080.7361 
c_born[12] =    174948.6453 f_CB[12] =    176619.3118 c_born[4] =    347146.5083 
f_CB[4]  =    349160.1278
------------ Step          57800 ----- CPU =     10819.68 (sec) -------------
Step     =          57800 Temp     =       300.4242 Press    =      1585.4186 
f_APR    =       257.8882 c_born[1] =    876494.1500 f_CB[1]  =    886079.6317 
c_born[12] =    176165.0024 f_CB[12] =    176616.7425 c_born[4] =    349157.2265 
f_CB[4]  =    349157.1863
------------ Step          57900 ----- CPU =     10836.95 (sec) -------------
Step     =          57900 Temp     =       302.6027 Press    =       635.2574 
f_APR    =       256.8167 c_born[1] =    880722.3415 f_CB[1]  =    886079.2982 
c_born[12] =    177469.2435 f_CB[12] =    176615.7639 c_born[4] =    350041.7619 
f_CB[4]  =    349155.9412
------------ Step          58000 ----- CPU =     10853.78 (sec) -------------
Step     =          58000 Temp     =       298.9947 Press    =      1105.7698 
f_APR    =       256.2951 c_born[1] =    878119.1492 f_CB[1]  =    886076.4285 
c_born[12] =    177397.9735 f_CB[12] =    176617.0348 c_born[4] =    349454.4247 
f_CB[4]  =    349156.3856
------------ Step          58100 ----- CPU =     10870.51 (sec) -------------
Step     =          58100 Temp     =       304.0809 Press    =      1376.9868 
f_APR    =       255.4911 c_born[1] =    879631.3377 f_CB[1]  =    886070.5537 
c_born[12] =    176717.6349 f_CB[12] =    176617.0304 c_born[4] =    348833.3682 
f_CB[4]  =    349155.8773
------------ Step          58200 ----- CPU =     10887.28 (sec) -------------
Step     =          58200 Temp     =       297.6076 Press    =       770.2282 
f_APR    =       254.3029 c_born[1] =    883934.0819 f_CB[1]  =    886068.0496 
c_born[12] =    176352.3986 f_CB[12] =    176618.8605 c_born[4] =    348593.2261 
f_CB[4]  =    349156.8717
------------ Step          58300 ----- CPU =     10904.09 (sec) -------------
Step     =          58300 Temp     =       300.6696 Press    =      2701.2080 
f_APR    =       253.2954 c_born[1] =    889469.3481 f_CB[1]  =    886068.8099 
c_born[12] =    175942.3453 f_CB[12] =    176617.8674 c_born[4] =    347912.4961 
f_CB[4]  =    349155.5164
------------ Step          58400 ----- CPU =     10920.81 (sec) -------------
Step     =          58400 Temp     =       305.3649 Press    =      1436.9642 
f_APR    =       253.3229 c_born[1] =    879549.8538 f_CB[1]  =    886065.1471 
c_born[12] =    177509.1436 f_CB[12] =    176618.2289 c_born[4] =    350164.5087 
f_CB[4]  =    349155.5946
------------ Step          58500 ----- CPU =     10938.13 (sec) -------------
Step     =          58500 Temp     =       306.1398 Press    =      1604.7920 
f_APR    =       252.9965 c_born[1] =    895283.0515 f_CB[1]  =    886064.6929 
c_born[12] =    176911.9620 f_CB[12] =    176619.5419 c_born[4] =    348311.0992 
f_CB[4]  =    349156.0493
------------ Step          58600 ----- CPU =     10955.69 (sec) -------------
Step     =          58600 Temp     =       298.1688 Press    =      -174.1110 
f_APR    =       250.8166 c_born[1] =    889513.5565 f_CB[1]  =    886076.8657 
c_born[12] =    176439.4353 f_CB[12] =    176620.7773 c_born[4] =    348563.5761 
f_CB[4]  =    349156.2171
------------ Step          58700 ----- CPU =     10972.21 (sec) -------------
Step     =          58700 Temp     =       292.8587 Press    =      -472.1300 
f_APR    =       248.6907 c_born[1] =    890722.0097 f_CB[1]  =    886081.7449 
c_born[12] =    177106.7230 f_CB[12] =    176619.9753 c_born[4] =    348710.7607 
f_CB[4]  =    349154.4080
------------ Step          58800 ----- CPU =     10988.74 (sec) -------------
Step     =          58800 Temp     =       297.8758 Press    =      1917.6852 
f_APR    =       248.1131 c_born[1] =    893104.2520 f_CB[1]  =    886085.8769 
c_born[12] =    175188.5562 f_CB[12] =    176620.1001 c_born[4] =    346732.3870 
f_CB[4]  =    349153.9372
------------ Step          58900 ----- CPU =     11005.34 (sec) -------------
Step     =          58900 Temp     =       298.1213 Press    =      -212.0114 
f_APR    =       248.0077 c_born[1] =    885657.6077 f_CB[1]  =    886090.3675 
c_born[12] =    176995.3399 f_CB[12] =    176618.2496 c_born[4] =    350155.9376 
f_CB[4]  =    349151.8320
------------ Step          59000 ----- CPU =     11022.58 (sec) -------------
Step     =          59000 Temp     =       311.3286 Press    =     -1652.2794 
f_APR    =       248.0674 c_born[1] =    888722.9992 f_CB[1]  =    886093.0132 
c_born[12] =    175410.2041 f_CB[12] =    176616.5471 c_born[4] =    347346.9624 
f_CB[4]  =    349150.0522
------------ Step          59100 ----- CPU =     11039.15 (sec) -------------
Step     =          59100 Temp     =       300.2568 Press    =      -766.6878 
f_APR    =       247.3579 c_born[1] =    883794.3682 f_CB[1]  =    886089.8847 
c_born[12] =    174948.2480 f_CB[12] =    176615.6533 c_born[4] =    347628.6350 
f_CB[4]  =    349149.0072
------------ Step          59200 ----- CPU =      11055.9 (sec) -------------
Step     =          59200 Temp     =       297.0024 Press    =     -1328.2979 
f_APR    =       246.1207 c_born[1] =    890312.8641 f_CB[1]  =    886081.1265 
c_born[12] =    175720.6152 f_CB[12] =    176611.7449 c_born[4] =    348013.2696 
f_CB[4]  =    349145.8699
------------ Step          59300 ----- CPU =     11072.51 (sec) -------------
Step     =          59300 Temp     =       292.5414 Press    =     -2196.6992 
f_APR    =       245.3020 c_born[1] =    883707.4660 f_CB[1]  =    886078.3764 
c_born[12] =    178997.2729 f_CB[12] =    176613.0259 c_born[4] =    351029.5116 
f_CB[4]  =    349147.0947
------------ Step          59400 ----- CPU =     11089.74 (sec) -------------
Step     =          59400 Temp     =       303.7421 Press    =       115.7381 
f_APR    =       244.6857 c_born[1] =    883471.5005 f_CB[1]  =    886080.0618 
c_born[12] =    178020.1928 f_CB[12] =    176615.0536 c_born[4] =    350497.6007 
f_CB[4]  =    349148.2818
------------ Step          59500 ----- CPU =     11106.54 (sec) -------------
Step     =          59500 Temp     =       304.6429 Press    =       120.1680 
f_APR    =       244.7518 c_born[1] =    882494.6730 f_CB[1]  =    886070.7416 
c_born[12] =    178626.2299 f_CB[12] =    176618.5999 c_born[4] =    351741.7302 
f_CB[4]  =    349151.4696
------------ Step          59600 ----- CPU =     11123.25 (sec) -------------
Step     =          59600 Temp     =       312.7897 Press    =       506.1439 
f_APR    =       244.6181 c_born[1] =    882447.9481 f_CB[1]  =    886065.9998 
c_born[12] =    179200.6662 f_CB[12] =    176622.2860 c_born[4] =    351528.6744 
f_CB[4]  =    349155.7038
------------ Step          59700 ----- CPU =     11140.15 (sec) -------------
Step     =          59700 Temp     =       308.8979 Press    =      -548.1055 
f_APR    =       244.1008 c_born[1] =    885749.3803 f_CB[1]  =    886063.8851 
c_born[12] =    179981.9979 f_CB[12] =    176627.2751 c_born[4] =    352924.8929 
f_CB[4]  =    349160.4234
------------ Step          59800 ----- CPU =     11156.86 (sec) -------------
Step     =          59800 Temp     =       299.5059 Press    =       190.8665 
f_APR    =       243.9551 c_born[1] =    878489.7320 f_CB[1]  =    886059.6606 
c_born[12] =    178892.5703 f_CB[12] =    176632.9818 c_born[4] =    352463.3121 
f_CB[4]  =    349166.9235
------------ Step          59900 ----- CPU =     11173.57 (sec) -------------
Step     =          59900 Temp     =       292.6373 Press    =       933.6828 
f_APR    =       244.2727 c_born[1] =    886474.7380 f_CB[1]  =    886052.8723 
c_born[12] =    179862.4986 f_CB[12] =    176635.6470 c_born[4] =    351098.9907 
f_CB[4]  =    349169.5591
------------ Step          60000 ----- CPU =     11190.66 (sec) -------------
Step     =          60000 Temp     =       297.0419 Press    =      2410.7497 
f_APR    =       244.1027 c_born[1] =    879998.2804 f_CB[1]  =    886051.5926 
c_born[12] =    181658.3832 f_CB[12] =    176640.4797 c_born[4] =    353915.5283 
f_CB[4]  =    349173.4514
------------ Step          60100 ----- CPU =     11207.49 (sec) -------------
Step     =          60100 Temp     =       304.3419 Press    =       659.9052 
f_APR    =       244.6683 c_born[1] =    885035.8660 f_CB[1]  =    886046.5128 
c_born[12] =    180583.0985 f_CB[12] =    176645.1798 c_born[4] =    353447.4535 
f_CB[4]  =    349177.9716
------------ Step          60200 ----- CPU =     11224.19 (sec) -------------
Step     =          60200 Temp     =       311.0951 Press    =      1435.8012 
f_APR    =       243.9908 c_born[1] =    895953.2250 f_CB[1]  =    886052.4744 
c_born[12] =    177083.0082 f_CB[12] =    176647.2166 c_born[4] =    348925.0284 
f_CB[4]  =    349179.6627
------------ Step          60300 ----- CPU =     11240.83 (sec) -------------
Step     =          60300 Temp     =       301.5955 Press    =       546.3357 
f_APR    =       244.4245 c_born[1] =    889992.0611 f_CB[1]  =    886060.2568 
c_born[12] =    178686.4266 f_CB[12] =    176649.9008 c_born[4] =    351264.0999 
f_CB[4]  =    349182.2288
------------ Step          60400 ----- CPU =     11257.81 (sec) -------------
Step     =          60400 Temp     =       299.1976 Press    =       804.6025 
f_APR    =       245.0022 c_born[1] =    890093.8515 