LAMMPS data file via write_data, version 15 Sep 2022, timestep = 0

6064 atoms
13 atom types
6060 bonds
11 bond types
11096 angles
18 angle types
17688 dihedrals
20 dihedral types

-8.456496 171.543504 xlo xhi
2.8345 182.8345 ylo yhi
-0.824502 179.175498 zlo zhi

Masses

1 1.00794
2 1.00794
3 12.0107
4 12.0107
5 1.00794
6 1.00794
7 1.00794
8 1.00794
9 1.00794
10 15.999
11 15.9994
12 15.9994
13 28.085501

Pair Coeffs # lj/cut

1 0.038 2.44997
2 0.038 2.44997
3 0.039 3.87541
4 0.039 3.87541
5 0.038 2.44997
6 0.038 2.44997
7 0.038 2.44997
8 0 0
9 0.038 2.44997
10 0.228 2.85978
11 0.228 2.85978
12 0.228 2.85978
13 0.04 4.05343

Bond Coeffs # harmonic

1 340.618 1.105
2 340.618 1.105
3 322.716 1.526
4 340.618 1.105
5 340.618 1.105
6 340.618 1.105
7 384 1.42
8 540.634 0.96
9 540.634 0.96
10 833.72 1.208
11 392.8 1.665

Angle Coeffs # harmonic

1 39.5 106.4
2 44.4 110
3 39.5 106.4
4 44.4 110
5 39.5 106.4
6 46.6 110.5
7 44.4 110
8 44.4 110
9 70 109.5
10 46.6 110.5
11 44.4 110
12 58.5 106
13 33.3 113.4
14 39.5 106.4
15 57 109.5
16 57 109.5
17 42.3 113.1
18 31.1 149.8

Dihedral Coeffs # harmonic

1 0.158 1 3
2 0.158 1 3
3 0.158 1 3
4 0.158 1 3
5 0.158 1 3
6 0.158 1 3
7 0.158 1 3
8 0.13 1 3
9 0.158 1 3
10 0.158 1 3
11 0.158 1 3
12 0.158 1 3
13 1 1 3
14 0.13 1 3
15 0.13 1 3
16 0.158 1 3
17 0.158 1 3
18 0.158 1 3
19 0.158 1 3
20 0.3 1 3

Atoms # full

6057 17 10 0 152.248 28.112 0.699 0 0 0
6058 17 10 0 152.667 29.314 0.847 0 0 0
6037 7 10 0 37.409 142.771 7.252 0 0 0
6038 7 10 0 37.429 142.019 8.291 0 0 0
6055 16 10 0 16.497 39.139 14.698 0 0 0
6056 16 10 0 16.958 40.334 14.768 0 0 0
562 1 9 0.142877 152.707 93.001 16.054 0 0 0
563 1 3 -0.0541615 152.444 93.454 17.077 0 0 0
565 1 1 0.131916 152.324 94.396 16.684 0 0 0
567 1 11 -0.396231 150.312 93.029 16.321 0 0 0
568 1 8 0.140538 150.04 93.942 16.334 0 0 0
560 1 11 -0.392345 154.762 92.985 17.131 0 0 0
6035 6 10 0 70.386 51.991 18.687 0 0 0
6036 6 10 0 69.892 53.125 18.351 0 0 0
688 1 9 0.134805 128.031 74.796 22.264 0 0 0
689 1 3 -0.0469884 128.507 74.398 21.276 0 0 0
690 1 4 -0.0618244 127.493 74.546 20.134 0 0 0
691 1 1 0.139894 128.644 73.315 21.464 0 0 0
692 1 6 0.16238 127.937 74.173 19.198 0 0 0
695 1 9 0.144891 125.816 74.189 21.429 0 0 0
696 1 3 -0.0406309 126.215 73.792 20.49 0 0 0
697 1 4 -0.0539037 125.155 73.752 19.358 0 0 0
698 1 1 0.147258 126.432 72.687 20.632 0 0 0
699 1 6 0.162142 125.468 73.141 18.461 0 0 0
701 1 7 0.163472 124.23 73.248 19.674 0 0 0
669 1 4 -0.0805345 133.871 74.794 22.29 0 0 0
670 1 1 0.132114 135.415 73.684 23.163 0 0 0
672 1 11 -0.406254 134.795 74.782 21.204 0 0 0
674 1 9 0.136607 133.233 72.789 22.148 0 0 0
675 1 3 -0.0540661 132.8 73.743 21.979 0 0 0
676 1 4 -0.0763117 131.483 73.854 22.778 0 0 0
677 1 1 0.135516 132.643 73.796 20.906 0 0 0
679 1 11 -0.406724 130.716 72.683 22.731 0 0 0
680 1 8 0.136914 131.299 71.944 22.93 0 0 0
685 1 6 0.159486 130.452 74.287 20.505 0 0 0
673 1 8 0.136101 135.733 74.617 21.523 0 0 0
693 1 11 -0.392215 127.291 75.907 19.913 0 0 0
694 1 8 0.154379 128.156 76.244 19.899 0 0 0
700 1 11 -0.387709 124.804 75.102 19.007 0 0 0
702 1 8 0.162632 125.569 75.653 19.276 0 0 0
671 1 6 0.148833 133.355 75.745 22.517 0 0 0
681 1 9 0.133057 131.345 75.999 22.588 0 0 0
682 1 3 -0.0526563 130.637 75.144 22.453 0 0 0
683 1 4 -0.0810619 129.881 75.027 21.114 0 0 0
686 1 11 -0.397349 129.917 76.286 20.493 0 0 0
687 1 8 0.139978 130.476 76.815 21.005 0 0 0
657 1 6 0.164298 138.32 77.557 23.162 0 0 0
660 1 9 0.140664 137.178 75.726 22.606 0 0 0
661 1 3 -0.0501357 136.443 76.356 23.163 0 0 0
663 1 1 0.139406 135.915 76.925 22.345 0 0 0
566 1 6 0.161797 151.126 91.708 17.627 0 0 0
574 1 11 -0.394225 148.673 91.902 19.108 0 0 0
575 1 8 0.14905 149.029 91.473 18.332 0 0 0
559 1 6 0.152569 153.583 92.431 18.676 0 0 0
603 1 8 0.14244 140.698 94.921 23.14 0 0 0
578 1 4 -0.0705377 146.9 94.102 20.344 0 0 0
580 1 6 0.154421 146.447 93.151 20.12 0 0 0
581 1 11 -0.392852 146.45 95.076 19.379 0 0 0
582 1 8 0.152251 146.491 95.92 19.841 0 0 0
583 1 9 0.12863 147.064 95.425 22.079 0 0 0
584 1 3 -0.0534396 146.513 94.514 21.773 0 0 0
585 1 4 -0.0767468 144.986 94.511 22.109 0 0 0
586 1 1 0.12984 146.908 93.711 22.477 0 0 0
587 1 6 0.136013 144.593 93.47 22.158 0 0 0
588 1 11 -0.402003 144.33 95.362 21.163 0 0 0
589 1 8 0.14481 144.681 95.096 20.284 0 0 0
558 1 1 0.130959 153.282 94.759 19.59 0 0 0
564 1 4 -0.0763743 151.113 92.857 17.48 0 0 0
569 1 9 0.128104 150.425 94.547 18.366 0 0 0
570 1 3 -0.0558113 150.385 93.516 18.662 0 0 0
571 1 4 -0.0774388 148.887 93.246 18.877 0 0 0
572 1 1 0.128081 151.025 93.42 19.567 0 0 0
573 1 6 0.160504 148.366 93.51 17.924 0 0 0
576 1 9 0.135019 148.802 95.006 20.276 0 0 0
577 1 3 -0.0463548 148.452 93.975 20.185 0 0 0
579 1 1 0.136889 148.867 93.398 21.066 0 0 0
541 1 9 0.128378 155.134 98.398 21.481 0 0 0
542 1 3 -0.0511346 156.186 98.144 21.077 0 0 0
543 1 4 -0.0804182 156.148 97.044 20.02 0 0 0
544 1 1 0.13168 156.786 97.879 21.911 0 0 0
545 1 6 0.156447 155.324 97.258 19.172 0 0 0
546 1 11 -0.402461 157.453 96.972 19.431 0 0 0
547 1 8 0.146204 157.282 97.629 18.779 0 0 0
548 1 9 0.129466 155.009 95.681 21.268 0 0 0
549 1 3 -0.0529803 155.776 95.645 20.489 0 0 0
550 1 4 -0.0798917 155.36 94.497 19.558 0 0 0
551 1 1 0.130592 156.657 95.314 21.067 0 0 0
552 1 6 0.153257 155.417 93.572 20.213 0 0 0
553 1 11 -0.397962 156.46 94.349 18.685 0 0 0
554 1 8 0.152275 156.878 95.211 18.832 0 0 0
555 1 9 0.130525 154.123 95.459 18.163 0 0 0
556 1 3 -0.0548473 154.078 94.585 18.793 0 0 0
557 1 4 -0.0722977 153.701 93.263 17.963 0 0 0
561 1 8 0.159531 155.456 93.512 17.537 0 0 0
525 1 11 -0.404017 154.089 103.777 23.001 0 0 0
529 1 4 -0.0829567 155.531 101.068 22.179 0 0 0
531 1 6 0.152572 154.953 100.211 22.477 0 0 0
532 1 11 -0.393635 154.645 101.825 21.266 0 0 0
533 1 8 0.154035 154.608 102.589 21.858 0 0 0
534 1 9 0.133528 157.43 100.211 22.338 0 0 0
535 1 3 -0.0425528 156.832 100.563 21.523 0 0 0
536 1 4 -0.0723932 156.784 99.433 20.499 0 0 0
537 1 1 0.133528 157.33 101.49 21.142 0 0 0
538 1 6 0.159755 157.793 99.285 20.118 0 0 0
539 1 11 -0.396909 155.992 100.003 19.471 0 0 0
540 1 8 0.154249 155.409 100.644 19.865 0 0 0
667 1 9 0.134021 133.999 73.978 24.367 0 0 0
668 1 3 -0.0547835 134.659 74.428 23.512 0 0 0
678 1 6 0.15168 131.784 73.946 23.861 0 0 0
662 1 4 -0.0757468 135.505 75.542 24.133 0 0 0
664 1 6 0.150755 134.758 76.303 24.458 0 0 0
684 1 1 0.133757 129.882 75.308 23.289 0 0 0
646 1 9 0.141113 135.95 80.737 25.487 0 0 0
647 1 3 -0.0470995 136.967 80.756 25.772 0 0 0
648 1 4 -0.0729806 137.52 79.326 25.683 0 0 0
650 1 6 0.163191 137.172 78.686 26.518 0 0 0
651 1 11 -0.390219 138.921 79.27 25.805 0 0 0
652 1 8 0.155489 139.262 80.124 26.192 0 0 0
653 1 9 0.137351 137.114 79.365 23.546 0 0 0
654 1 3 -0.0412383 136.97 78.643 24.391 0 0 0
655 1 4 -0.0685619 137.51 77.322 23.866 0 0 0
656 1 1 0.132364 135.893 78.498 24.494 0 0 0
658 1 11 -0.393583 138.148 76.679 24.965 0 0 0
659 1 8 0.155346 138.562 77.436 25.462 0 0 0
665 1 11 -0.392064 136.169 74.983 25.241 0 0 0
666 1 8 0.155711 136.94 75.573 25.347 0 0 0
630 1 11 -0.395601 135.279 86.317 27.26 0 0 0
636 1 6 0.160788 135.257 84.465 24.994 0 0 0
637 1 11 -0.402401 135.264 83.087 26.52 0 0 0
638 1 8 0.148367 134.898 83.756 27.136 0 0 0
626 1 3 -0.0490498 137.561 86.738 27.802 0 0 0
627 1 4 -0.0767037 136.531 85.659 27.416 0 0 0
628 1 1 0.137053 138.555 86.255 27.827 0 0 0
629 1 6 0.157864 136.388 84.931 28.201 0 0 0
632 1 9 0.134664 137.977 84.347 26.402 0 0 0
633 1 3 -0.0513024 137.002 84.827 26.138 0 0 0
634 1 4 -0.0740335 135.976 83.838 25.53 0 0 0
635 1 1 0.134148 137.273 85.57 25.324 0 0 0
639 1 9 0.135645 137.348 83.637 23.849 0 0 0
640 1 3 -0.053273 136.742 82.958 24.481 0 0 0
641 1 4 -0.083025 137.63 81.776 24.943 0 0 0
642 1 1 0.135363 136.084 82.637 23.71 0 0 0
643 1 6 0.152008 137.985 81.242 24.108 0 0 0
644 1 11 -0.401646 138.809 82.175 25.703 0 0 0
645 1 8 0.133246 138.545 82.979 26.236 0 0 0
649 1 1 0.139969 137.004 81.215 26.8 0 0 0
631 1 8 0.151593 135.529 87.096 26.733 0 0 0
604 1 9 0.130084 141.483 92.446 25.877 0 0 0
607 1 1 0.136404 140.434 92.189 24.548 0 0 0
611 1 9 0.137568 138.523 91.777 27.978 0 0 0
612 1 3 -0.0491033 139.202 91.565 27.118 0 0 0
613 1 4 -0.073226 138.666 90.33 26.44 0 0 0
614 1 1 0.125642 140.191 91.289 27.612 0 0 0
615 1 6 0.159616 137.575 90.591 26.146 0 0 0
616 1 11 -0.398975 139.422 90.001 25.299 0 0 0
617 1 8 0.142512 139.768 90.856 25.056 0 0 0
618 1 9 0.133705 138.323 89.248 28.345 0 0 0
619 1 3 -0.0516244 138.605 88.987 27.267 0 0 0
620 1 4 -0.0745738 137.524 87.968 26.78 0 0 0
621 1 1 0.130262 139.569 88.44 27.353 0 0 0
622 1 6 0.154567 137.709 87.57 25.756 0 0 0
623 1 11 -0.397627 136.193 88.55 26.751 0 0 0
624 1 8 0.14766 136.161 89.257 27.417 0 0 0
625 1 9 0.1348 137.424 87.131 28.823 0 0 0
599 1 4 -0.0757837 141.098 94.253 24.865 0 0 0
601 1 6 0.158563 141.137 94.991 25.665 0 0 0
602 1 11 -0.406178 140.206 94.846 23.944 0 0 0
605 1 3 -0.0441838 140.636 92.89 25.419 0 0 0
606 1 4 -0.0686567 139.421 92.859 26.356 0 0 0
608 1 6 0.165686 138.536 93.1 25.821 0 0 0
609 1 11 -0.406257 139.559 93.789 27.469 0 0 0
610 1 8 0.136742 139.871 94.648 27.162 0 0 0
590 1 9 0.130623 145.17 96.213 23.326 0 0 0
591 1 3 -0.0606604 144.747 95.189 23.415 0 0 0
592 1 4 -0.0795963 143.335 95.409 24.055 0 0 0
593 1 1 0.125056 145.377 94.646 24.131 0 0 0
594 1 6 0.160447 142.721 95.975 23.404 0 0 0
595 1 11 -0.400747 143.53 96.105 25.313 0 0 0
596 1 8 0.134988 144.437 95.849 25.587 0 0 0
597 1 9 0.13169 143.152 93.577 24.975 0 0 0
598 1 3 -0.0523698 142.52 94.104 24.303 0 0 0
600 1 1 0.12491 142.578 93.498 23.415 0 0 0
505 1 8 0.139563 147.705 101.982 28.865 0 0 0
506 1 9 0.126415 149.163 100.935 27.187 0 0 0
507 1 3 -0.0580365 149.957 101.018 27.956 0 0 0
508 1 4 -0.0729718 150.878 102.145 27.42 0 0 0
509 1 1 0.127103 150.451 100.041 27.905 0 0 0
510 1 6 0.156189 151.694 102.485 28.104 0 0 0
511 1 11 -0.389464 149.974 103.166 27.116 0 0 0
512 1 8 0.155556 149.428 103.147 27.902 0 0 0
513 1 9 0.129926 150.66 101.69 25.304 0 0 0
514 1 3 -0.0487179 151.491 101.75 26.054 0 0 0
515 1 4 -0.0720937 152.563 102.686 25.41 0 0 0
516 1 1 0.132716 151.877 100.7 26.097 0 0 0
517 1 6 0.144919 153.205 103.177 26.186 0 0 0
518 1 11 -0.392725 151.913 103.748 24.77 0 0 0
519 1 8 0.148759 151.322 104.117 25.52 0 0 0
520 1 9 0.135261 152.974 101.403 23.676 0 0 0
521 1 3 -0.0510858 153.513 101.942 24.495 0 0 0
526 1 8 0.155657 153.196 103.977 23.335 0 0 0
522 1 4 -0.0812585 154.688 102.833 23.928 0 0 0
523 1 1 0.136716 153.904 101.166 25.128 0 0 0
524 1 6 0.156736 155.144 103.386 24.758 0 0 0
527 1 9 0.131134 156.186 101.266 24.215 0 0 0
528 1 3 -0.0523403 155.866 101.941 23.354 0 0 0
530 1 1 0.134768 156.803 102.578 23.19 0 0 0
3511 6 9 0.155224 8.666 90.296 34.287 0 0 0
3512 6 3 -0.0406252 9.214 90.858 35.066 0 0 0
3515 6 2 0.148333 8.605 91.786 35.024 0 0 0
3513 6 4 -0.0482313 10.658 91.041 34.743 0 0 0
3516 6 6 0.168663 11.21 90.077 34.803 0 0 0
3519 6 9 0.139817 10.427 92.733 33.544 0 0 0
3520 6 3 -0.0313784 10.95 91.738 33.389 0 0 0
3521 6 4 -0.0712838 12.504 91.88 33.211 0 0 0
3522 6 1 0.136743 10.483 91.277 32.553 0 0 0
3523 6 6 0.160209 12.956 92.198 34.167 0 0 0
3524 6 11 -0.39927 13.017 90.574 32.895 0 0 0
3525 6 8 0.13947 13.125 90.582 31.974 0 0 0
3526 6 9 0.132768 12.327 92.648 31.177 0 0 0
3527 6 3 -0.0489849 12.893 92.816 32.097 0 0 0
3529 6 1 0.136731 13.961 92.486 31.794 0 0 0
3528 6 4 -0.0707954 12.949 94.287 32.468 0 0 0
3530 6 6 0.160874 13.524 94.337 33.463 0 0 0
3531 6 11 -0.401853 11.665 94.925 32.713 0 0 0
3532 6 8 0.147737 11.906 95.831 32.592 0 0 0
3533 6 9 0.135253 13.514 94.76 30.43 0 0 0
3534 6 3 -0.0505657 13.816 95.052 31.465 0 0 0
3535 6 4 -0.0815108 13.776 96.621 31.516 0 0 0
3536 6 1 0.131846 14.897 94.703 31.462 0 0 0
3537 6 6 0.158466 12.871 96.91 30.897 0 0 0
3538 6 11 -0.393709 13.633 97.108 32.876 0 0 0
3539 6 8 0.156771 14.578 97.247 33.113 0 0 0
3540 6 9 0.132214 14.765 98.427 30.765 0 0 0
3541 6 3 -0.0504187 14.968 97.364 30.96 0 0 0
3543 6 1 0.135088 15.24 96.913 29.961 0 0 0
3542 6 4 -0.0841681 16.24 97.306 31.829 0 0 0
3544 6 6 0.15185 16.673 96.21 31.76 0 0 0
3545 6 11 -0.40725 16.02 97.755 33.171 0 0 0
3546 6 8 0.140908 16.579 98.509 33.341 0 0 0
3548 6 3 -0.0467695 17.313 98.174 31.161 0 0 0
3549 6 4 -0.0738508 18.691 98.005 31.971 0 0 0
3550 6 1 0.133357 17.544 97.877 30.113 0 0 0
3551 6 6 0.16352 18.523 97.699 33.052 0 0 0
3552 6 11 -0.398435 19.443 96.923 31.383 0 0 0
3553 6 8 0.148869 19.269 96.145 31.903 0 0 0
3558 6 6 0.164699 21.253 98.254 32.661 0 0 0
3559 6 11 -0.394158 20.194 98.797 34.35 0 0 0
469 1 11 -0.402014 144.049 97.303 35.171 0 0 0
475 1 6 0.155646 146.561 98.353 34.865 0 0 0
485 1 9 0.135812 147.408 96.931 33.153 0 0 0
480 1 4 -0.0666816 148.556 96.479 34.913 0 0 0
482 1 6 0.162682 147.915 95.618 35.035 0 0 0
483 1 11 -0.388891 149.914 96.025 35.079 0 0 0
484 1 8 0.155427 150.352 96.737 34.566 0 0 0
486 1 3 -0.0528186 148.467 96.817 33.401 0 0 0
487 1 4 -0.0885758 149.227 97.969 32.726 0 0 0
488 1 1 0.130991 148.768 95.876 32.913 0 0 0
490 1 11 -0.400422 150.564 98.084 33.052 0 0 0
491 1 8 0.14479 151.042 98.099 32.242 0 0 0
492 1 9 0.127135 147.978 97.835 30.92 0 0 0
493 1 3 -0.0572364 149.05 97.839 31.22 0 0 0
495 1 1 0.1239 149.451 96.881 30.903 0 0 0
496 1 6 0.144294 150.039 98.565 29.41 0 0 0
3547 6 9 0.13202 17.002 99.238 31.088 0 0 0
3554 6 9 0.137467 18.63 100.122 32.481 0 0 0
3555 6 3 -0.0442827 19.389 99.359 32.085 0 0 0
3556 6 4 -0.0692797 20.631 99.146 32.999 0 0 0
3557 6 1 0.135453 19.793 99.64 31.096 0 0 0
3560 6 8 0.143628 19.909 99.703 34.655 0 0 0
3561 6 9 0.13243 20.817 101.18 33.51 0 0 0
3562 6 3 -0.0523623 21.478 100.381 33.072 0 0 0
3563 6 4 -0.0771234 22.82 100.375 33.866 0 0 0
3564 6 1 0.131239 21.703 100.745 32.063 0 0 0
3565 6 6 0.157613 22.631 100.231 34.995 0 0 0
3566 6 11 -0.402736 23.668 99.274 33.419 0 0 0
3567 6 8 0.147651 24.444 99.346 34.048 0 0 0
3568 6 9 0.132002 22.913 102.477 33.625 0 0 0
3569 6 3 -0.0436548 23.608 101.67 33.688 0 0 0
3570 6 4 -0.0770469 24.608 102.056 34.789 0 0 0
3571 6 1 0.136769 24.127 101.494 32.75 0 0 0
3572 6 6 0.161718 25.478 101.339 34.794 0 0 0
3575 6 9 0.132608 24.497 104.241 34.294 0 0 0
3576 6 3 -0.0435637 25.256 103.479 34.414 0 0 0
3578 6 1 0.135614 25.834 103.39 33.519 0 0 0
489 1 6 0.150115 148.717 98.95 32.98 0 0 0
494 1 4 -0.0869352 149.674 98.932 30.363 0 0 0
497 1 11 -0.417744 150.899 99.514 30.91 0 0 0
498 1 8 0.144029 150.628 99.908 31.755 0 0 0
499 1 9 0.135031 148.353 100.585 31.037 0 0 0
500 1 3 -0.054416 148.732 100.096 30.099 0 0 0
501 1 4 -0.0917185 149.423 101.33 29.357 0 0 0
502 1 1 0.130999 147.833 99.857 29.522 0 0 0
503 1 6 0.150645 150.274 101.638 30.011 0 0 0
504 1 11 -0.407867 148.502 102.353 29.237 0 0 0
3582 6 9 0.131068 26.3 105.935 34.071 0 0 0
3583 6 3 -0.0467327 26.919 105.324 34.836 0 0 0
3597 6 3 -0.0516566 26.851 109.203 34.301 0 0 0
3598 6 4 -0.0815524 26.669 110.227 33.179 0 0 0
3599 6 1 0.134471 25.896 108.723 34.315 0 0 0
3600 6 6 0.152905 26.446 109.674 32.225 0 0 0
3606 6 1 0.135449 24.639 110.548 33.639 0 0 0
3585 6 1 0.134697 27.755 105.003 34.171 0 0 0
3589 6 9 0.135923 29.231 106.838 35.083 0 0 0
3591 6 4 -0.0862045 28.011 108.202 34.12 0 0 0
3593 6 6 0.151444 27.828 107.44 33.309 0 0 0
3594 6 11 -0.397886 29.166 108.971 33.932 0 0 0
3595 6 8 0.148755 28.827 109.704 33.357 0 0 0
3603 6 9 0.130135 25.514 111.729 34.455 0 0 0
3604 6 3 -0.056234 25.507 111.221 33.476 0 0 0
3605 6 4 -0.07654 25.204 112.199 32.36 0 0 0
3607 6 6 0.15812 25.125 111.63 31.419 0 0 0
3608 6 11 -0.392877 23.927 112.676 32.725 0 0 0
3609 6 8 0.157015 24.256 113.414 33.214 0 0 0
3610 6 9 0.139544 25.877 113.966 31.249 0 0 0
3611 6 3 -0.0403426 26.095 113.45 32.261 0 0 0
3612 6 4 -0.0772911 25.963 114.557 33.389 0 0 0
3613 6 1 0.140091 27.236 113.221 32.262 0 0 0
3614 6 6 0.154378 25.988 114.202 34.451 0 0 0
3615 6 11 -0.39341 24.749 115.243 33.157 0 0 0
3616 6 8 0.154877 24.919 116.169 33.553 0 0 0
3617 6 9 0.135075 26.866 116.287 32.371 0 0 0
3618 6 3 -0.0464421 26.975 115.652 33.274 0 0 0
3619 6 4 -0.0801124 27.044 116.607 34.508 0 0 0
3601 6 11 -0.410345 27.881 110.992 33.123 0 0 0
3602 6 8 0.136657 27.984 111.371 34.011 0 0 0
3620 6 1 0.130163 27.95 115.179 33.153 0 0 0
3622 6 11 -0.396357 25.76 117.051 34.845 0 0 0
3621 6 6 0.157919 27.677 117.513 34.348 0 0 0
6045 11 10 0 149.163 126.413 30.173 0 0 0
6046 11 10 0 150.14 126.318 29.349 0 0 0
1499 3 4 -0.0765401 74.592 43.665 40.152 0 0 0
1501 3 6 0.158125 75.076 42.867 39.565 0 0 0
1502 3 11 -0.392874 73.349 43.203 40.632 0 0 0
1503 3 8 0.157012 72.962 44.063 40.689 0 0 0
1504 3 9 0.139549 73.87 44.601 38.305 0 0 0
1494 3 6 0.152906 77.298 43.079 40.68 0 0 0
1505 3 3 -0.0403431 74.272 44.932 39.339 0 0 0
1506 3 4 -0.077296 73.228 45.965 39.938 0 0 0
1507 3 1 0.140092 75.197 45.602 39.121 0 0 0
1508 3 6 0.154372 73.376 46.271 41.006 0 0 0
1509 3 11 -0.393409 71.945 45.389 39.795 0 0 0
1510 3 8 0.154875 71.326 46.199 39.738 0 0 0
1511 3 9 0.13507 72.674 47.084 38.126 0 0 0
1512 3 3 -0.0464524 73.105 47.222 39.139 0 0 0
1513 3 4 -0.0801232 72.294 48.36 39.836 0 0 0
1514 3 1 0.130159 74.115 47.588 38.953 0 0 0
1515 3 6 0.157913 72.064 49.228 39.173 0 0 0
1516 3 11 -0.396369 71.073 47.862 40.307 0 0 0
1517 3 8 0.152939 70.702 48.418 41.004 0 0 0
1518 3 9 0.128133 74.039 49.212 40.737 0 0 0
1519 3 3 -0.0551556 73.023 48.983 41.081 0 0 0
1489 3 8 0.148749 78.715 45.275 41.023 0 0 0
1495 3 11 -0.410343 77.165 45.217 40.571 0 0 0
1525 3 9 0.135007 72.1 51.433 39.815 0 0 0
1526 3 3 -0.0485693 72.568 51.599 40.78 0 0 0
1528 3 1 0.131983 73.58 51.76 40.446 0 0 0
1532 3 9 0.139318 71.768 54.303 39.905 0 0 0
1533 3 3 -0.0470712 72.449 54.168 40.748 0 0 0
1535 3 1 0.132352 73.435 54.032 40.306 0 0 0
1540 3 3 -0.0418634 73.277 56.54 41.022 0 0 0
1542 3 1 0.132301 74.207 56.219 40.543 0 0 0
1539 3 9 0.134799 72.742 56.996 40.201 0 0 0
3514 6 1 0.156384 9.015 90.299 35.971 0 0 0
3517 6 11 -0.385921 11.078 91.941 35.767 0 0 0
3518 6 8 0.142621 10.45 92.661 35.733 0 0 0
459 1 4 -0.0706782 143.341 97.791 38.834 0 0 0
461 1 6 0.160037 144.274 97.485 39.352 0 0 0
462 1 11 -0.403905 142.293 97.118 39.515 0 0 0
463 1 8 0.144246 142.23 97.476 40.392 0 0 0
464 1 9 0.136742 142.358 97.505 37.024 0 0 0
465 1 3 -0.0486963 143.359 97.304 37.428 0 0 0
466 1 4 -0.0713116 144.421 97.82 36.472 0 0 0
467 1 1 0.132871 143.626 96.232 37.434 0 0 0
470 1 8 0.137144 143.666 96.423 35.228 0 0 0
471 1 9 0.139568 145.94 96.326 36.586 0 0 0
472 1 3 -0.0393379 145.847 97.416 36.732 0 0 0
473 1 4 -0.0666527 146.862 98.221 35.926 0 0 0
474 1 1 0.132923 146.005 97.474 37.841 0 0 0
478 1 9 0.142727 148.553 97.284 36.931 0 0 0
479 1 3 -0.0354571 148.285 97.621 35.899 0 0 0
481 1 1 0.145675 148.918 98.431 35.668 0 0 0
3573 6 11 -0.395989 23.894 102.109 36.047 0 0 0
3574 6 8 0.144348 22.973 102.178 35.775 0 0 0
3577 6 4 -0.0745984 26.134 104.176 35.496 0 0 0
3579 6 6 0.161624 25.441 104.531 36.352 0 0 0
3580 6 11 -0.399971 27.033 103.209 36.064 0 0 0
3581 6 8 0.150117 26.375 102.489 36.07 0 0 0
449 1 8 0.137686 143.362 103.606 40.969 0 0 0
450 1 9 0.13322 143.872 101.663 39.784 0 0 0
451 1 3 -0.0475792 143.274 101.329 40.675 0 0 0
452 1 4 -0.0768348 143.417 99.767 40.518 0 0 0
453 1 1 0.132108 142.217 101.682 40.563 0 0 0
454 1 6 0.153239 142.619 99.291 41.127 0 0 0
455 1 11 -0.404064 144.712 99.388 40.851 0 0 0
456 1 8 0.143163 145.158 100.172 41.061 0 0 0
457 1 9 0.133717 143.809 99.905 38.3 0 0 0
458 1 3 -0.0472597 143.152 99.325 38.996 0 0 0
460 1 1 0.136912 142.033 99.661 38.801 0 0 0
468 1 6 0.161945 144.349 98.866 36.387 0 0 0
476 1 11 -0.398596 146.914 99.469 36.551 0 0 0
477 1 8 0.144544 146.534 99.437 37.451 0 0 0
3584 6 4 -0.0717783 27.403 106.349 35.887 0 0 0
3587 6 11 -0.408024 26.264 107.051 36.362 0 0 0
3588 6 8 0.134105 26.305 107.864 35.875 0 0 0
3596 6 9 0.129378 26.933 109.632 35.302 0 0 0
3586 6 6 0.161273 27.961 105.793 36.693 0 0 0
3590 6 3 -0.0497779 28.345 107.432 35.392 0 0 0
3592 6 1 0.135283 28.697 108.103 36.18 0 0 0
3627 6 1 0.134031 27.111 115.008 36.229 0 0 0
3624 6 9 0.128134 28.553 115.438 35.476 0 0 0
3625 6 3 -0.0551505 27.626 115.928 35.8 0 0 0
3628 6 6 0.152197 28.296 116.235 37.721 0 0 0
3623 6 8 0.152948 25.714 117.361 35.758 0 0 0
3629 6 11 -0.391528 26.913 117.608 37.453 0 0 0
3630 6 8 0.15906 27.236 118.529 37.551 0 0 0
3626 6 4 -0.074048 28.008 116.887 36.922 0 0 0
3631 6 9 0.13501 29.067 118.452 35.915 0 0 0
3632 6 3 -0.0485726 29.233 117.823 36.785 0 0 0
3633 6 4 -0.0769523 29.592 118.632 38.061 0 0 0
3634 6 1 0.131981 30.107 117.294 36.439 0 0 0
3635 6 6 0.15485 29.613 117.953 38.977 0 0 0
3636 6 11 -0.396711 28.54 119.543 38.301 0 0 0
3637 6 8 0.151967 28.919 120.263 38.745 0 0 0
3638 6 9 0.139314 30.827 120.244 37.346 0 0 0
3639 6 3 -0.0471001 30.957 119.34 37.944 0 0 0
3640 6 4 -0.0816105 31.513 119.798 39.327 0 0 0
3641 6 1 0.132338 31.635 118.708 37.371 0 0 0
3642 6 6 0.149439 31.232 119.044 40.089 0 0 0
3643 6 11 -0.405632 30.825 121.034 39.643 0 0 0
3644 6 8 0.14236 31.448 121.674 40.005 0 0 0
3645 6 9 0.134779 33.274 120.894 38.717 0 0 0
3646 6 3 -0.0419221 33.089 119.928 39.167 0 0 0
3649 6 6 0.15593 33.369 120.72 41.121 0 0 0
3647 6 4 -0.0768619 33.805 119.914 40.553 0 0 0
3648 6 1 0.132271 33.61 119.251 38.485 0 0 0
3650 6 11 -0.39162 35.206 120.17 40.314 0 0 0
3651 6 8 0.155544 35.571 119.844 41.147 0 0 0
3652 6 9 0.132218 34.19 117.719 40.744 0 0 0
1434 3 9 0.132207 78.038 28.056 46.911 0 0 0
1437 3 1 0.135083 79.569 27.186 46.663 0 0 0
1441 3 9 0.132019 78.882 30.212 46.278 0 0 0
1442 3 3 -0.0467701 79.865 29.877 46.671 0 0 0
1443 3 4 -0.0738535 80.804 31.116 47.079 0 0 0
1444 3 1 0.133354 80.365 29.396 45.801 0 0 0
1448 3 9 0.137465 79.138 32.473 46.722 0 0 0
1449 3 3 -0.0442857 80.253 32.402 46.466 0 0 0
1451 3 1 0.135456 80.435 32.387 45.375 0 0 0
1446 3 11 -0.398436 82.174 30.776 46.779 0 0 0
1450 3 4 -0.0692813 81.122 33.569 47.018 0 0 0
1455 3 9 0.132429 79.68 35.053 46.629 0 0 0
1456 3 3 -0.0523653 80.763 34.874 46.374 0 0 0
1458 3 1 0.131238 80.766 34.772 45.283 0 0 0
1462 3 9 0.132002 80.098 37.285 45.661 0 0 0
1463 3 3 -0.0436533 81.147 37.354 45.843 0 0 0
1464 3 4 -0.077046 81.39 38.767 46.393 0 0 0
1452 3 6 0.164697 82.235 33.357 46.899 0 0 0
1457 3 4 -0.077124 81.559 36.171 46.715 0 0 0
1460 3 11 -0.402737 82.989 35.953 46.52 0 0 0
1461 3 8 0.147653 83.374 36.821 46.837 0 0 0
1465 3 1 0.136771 81.736 37.191 44.944 0 0 0
1497 3 9 0.130128 74.889 44.579 42.097 0 0 0
1498 3 3 -0.056234 75.379 43.847 41.434 0 0 0
1500 3 1 0.13545 75.28 42.944 42.072 0 0 0
1469 3 9 0.132608 79.763 39.668 45.138 0 0 0
1470 3 3 -0.0435628 80.815 39.834 45.335 0 0 0
1471 3 4 -0.0745963 80.75 41.325 45.781 0 0 0
1472 3 1 0.135613 81.373 39.779 44.426 0 0 0
1473 3 6 0.161625 79.923 41.427 46.585 0 0 0
1476 3 9 0.131067 79.735 41.759 43.797 0 0 0
1477 3 3 -0.0467332 80.503 42.204 44.542 0 0 0
1478 3 4 -0.0717782 79.938 43.587 44.939 0 0 0
1479 3 1 0.134699 81.376 42.308 43.855 0 0 0
1480 3 6 0.161267 80.619 44.038 45.715 0 0 0
1481 3 11 -0.408022 78.607 43.396 45.392 0 0 0
1482 3 8 0.134107 78.093 43.649 44.637 0 0 0
1483 3 9 0.135919 80.887 44.766 43.548 0 0 0
1484 3 3 -0.0497805 79.823 44.616 43.829 0 0 0
1485 3 4 -0.0862004 79.19 44.226 42.499 0 0 0
1487 3 6 0.151444 79.73 43.308 42.13 0 0 0
1490 3 9 0.129388 77.273 44.801 43.276 0 0 0
1491 3 3 -0.0516541 77.659 44.05 42.582 0 0 0
1492 3 4 -0.0815511 76.92 43.975 41.245 0 0 0
1493 3 1 0.134472 77.379 43.125 43.038 0 0 0
1466 3 6 0.161726 82.496 38.982 46.441 0 0 0
1474 3 11 -0.399965 81.99 41.678 46.415 0 0 0
1475 3 8 0.15012 82.085 40.825 46.877 0 0 0
1520 3 4 -0.0740518 72.43 50.29 41.595 0 0 0
1521 3 1 0.134025 73.308 48.312 41.956 0 0 0
1522 3 6 0.152202 73.005 50.497 42.474 0 0 0
1523 3 11 -0.391528 71.106 50.166 42.078 0 0 0
1486 3 1 0.135286 79.465 45.592 44.167 0 0 0
1488 3 11 -0.397886 79.41 45.371 41.723 0 0 0
1496 3 8 0.136656 76.844 45.904 41.178 0 0 0
1524 3 8 0.159051 70.629 50.943 41.72 0 0 0
1527 3 4 -0.0769262 72.052 52.879 41.494 0 0 0
1529 3 6 0.154869 72.455 52.937 42.559 0 0 0
1530 3 11 -0.396703 70.653 52.755 41.635 0 0 0
1531 3 8 0.15197 70.318 53.62 41.645 0 0 0
1534 3 4 -0.0815683 72.309 55.44 41.639 0 0 0
1536 3 6 0.149471 72.586 55.177 42.679 0 0 0
1537 3 11 -0.405608 70.902 55.786 41.622 0 0 0
1538 3 8 0.142372 70.798 56.738 41.524 0 0 0
1546 3 9 0.132279 75.446 56.811 42.973 0 0 0
1549 3 1 0.133345 73.888 56.342 43.747 0 0 0
1541 3 4 -0.0767853 73.592 57.665 42.056 0 0 0
1543 3 6 0.15598 72.639 58.064 42.36 0 0 0
1544 3 11 -0.391563 74.362 58.675 41.368 0 0 0
1545 3 8 0.155583 74.743 59.131 42.13 0 0 0
1547 3 3 -0.0470816 74.453 57.192 43.285 0 0 0
1548 3 4 -0.0712886 74.636 58.285 44.291 0 0 0
1550 3 6 0.16124 73.632 58.743 44.449 0 0 0
1551 3 11 -0.388532 75.442 59.298 43.675 0 0 0
1554 3 3 -0.0443248 75.4 57.77 45.584 0 0 0
1556 3 1 0.134916 74.75 57.035 46.12 0 0 0
1557 3 6 0.158256 74.894 59.433 46.88 0 0 0
1552 3 8 0.159448 75.983 59.632 44.431 0 0 0
1553 3 9 0.132963 76.281 57.273 45.199 0 0 0
1555 3 4 -0.0740789 75.77 58.927 46.522 0 0 0
1558 3 11 -0.387778 76.635 59.841 45.859 0 0 0
1559 3 8 0.158281 76.996 60.37 46.601 0 0 0
427 1 11 -0.406797 140.028 96.888 46.818 0 0 0
428 1 8 0.146454 140.595 96.698 46.066 0 0 0
433 1 6 0.152511 140.857 98.644 44.804 0 0 0
434 1 11 -0.410383 142.855 98.196 45.453 0 0 0
435 1 8 0.140073 142.937 97.872 44.552 0 0 0
430 1 3 -0.0593208 141.155 99.043 46.934 0 0 0
432 1 1 0.128397 140.177 99.62 47.007 0 0 0
439 1 1 0.133567 141.006 100.886 44.775 0 0 0
431 1 4 -0.0901883 141.674 99.021 45.476 0 0 0
436 1 9 0.129634 142.339 101.03 45.936 0 0 0
437 1 3 -0.0552491 142.013 100.476 45.021 0 0 0
438 1 4 -0.0779314 142.996 100.488 43.875 0 0 0
440 1 6 0.156027 142.691 99.703 43.189 0 0 0
441 1 11 -0.396783 144.3 100.137 44.35 0 0 0
442 1 8 0.143201 144.219 99.836 45.275 0 0 0
443 1 9 0.138075 143.369 102.626 43.865 0 0 0
444 1 3 -0.0535076 143.103 101.835 43.172 0 0 0
445 1 4 -0.0705814 143.931 101.964 41.884 0 0 0
446 1 1 0.134779 142.046 102.17 42.893 0 0 0
447 1 6 0.162096 144.97 101.459 41.998 0 0 0
448 1 11 -0.392965 144.067 103.375 41.589 0 0 0
6027 2 10 0 103.924 105.97 45.452 0 0 0
6028 2 10 0 104.24 105.817 44.219 0 0 0
3659 6 9 0.132938 34.466 116.492 42.814 0 0 0
3666 6 9 0.134383 35.248 115.074 44.827 0 0 0
3667 6 3 -0.0479919 34.798 115.913 45.427 0 0 0
3668 6 4 -0.0722282 35.406 115.943 46.867 0 0 0
3669 6 1 0.134254 33.725 115.671 45.626 0 0 0
3671 6 11 -0.396091 36.76 116.229 46.879 0 0 0
3673 6 9 0.134067 35.677 113.761 47.017 0 0 0
3655 6 1 0.133294 32.62 118.31 41.403 0 0 0
3662 6 1 0.134974 33.036 117.134 43.705 0 0 0
3653 6 3 -0.0471635 33.713 118.541 41.315 0 0 0
3654 6 4 -0.0713297 34.327 118.617 42.678 0 0 0
3656 6 6 0.161204 33.939 119.549 43.149 0 0 0
3657 6 11 -0.38859 35.735 118.82 42.498 0 0 0
3658 6 8 0.159393 36.123 118.311 43.251 0 0 0
3660 6 3 -0.0442987 34.125 117.267 43.489 0 0 0
3661 6 4 -0.0739232 34.926 117.268 44.798 0 0 0
3663 6 6 0.158339 34.602 118.054 45.452 0 0 0
3664 6 11 -0.387737 36.316 117.389 44.525 0 0 0
3665 6 8 0.158318 36.725 117.126 45.376 0 0 0
1413 3 9 0.139813 79.025 23.157 52.741 0 0 0
1414 3 3 -0.0313771 80.126 22.903 52.85 0 0 0
1415 3 4 -0.0712826 81.073 23.985 52.218 0 0 0
1416 3 1 0.136741 80.259 21.942 52.418 0 0 0
1417 3 6 0.160208 81.021 24.913 52.816 0 0 0
1420 3 9 0.132769 80.638 23.356 50.176 0 0 0
1421 3 3 -0.0489849 80.776 24.264 50.768 0 0 0
1422 3 4 -0.0707952 79.682 25.284 50.509 0 0 0
1424 3 6 0.160868 79.904 26.166 51.212 0 0 0
1425 3 11 -0.401854 78.33 24.85 50.823 0 0 0
1426 3 8 0.14773 77.835 25.462 50.299 0 0 0
1427 3 9 0.135252 79.957 25.008 48.377 0 0 0
1428 3 3 -0.0505674 79.814 25.852 49.095 0 0 0
1429 3 4 -0.0815094 78.623 26.713 48.54 0 0 0
1430 3 1 0.131842 80.789 26.414 48.935 0 0 0
1431 3 6 0.158465 77.885 25.958 48.127 0 0 0
1418 3 11 -0.399269 82.416 23.479 52.309 0 0 0
1419 3 8 0.139472 82.595 23.139 51.466 0 0 0
1423 3 1 0.136732 81.765 24.69 50.342 0 0 0
1432 3 11 -0.393708 78.002 27.502 49.588 0 0 0
1433 3 8 0.156787 78.497 28.348 49.488 0 0 0
1435 3 3 -0.0504151 78.933 27.701 47.44 0 0 0
1436 3 4 -0.0841711 79.713 28.954 47.886 0 0 0
1438 3 6 0.151853 80.817 28.621 48.134 0 0 0
1439 3 11 -0.407255 79.07 29.661 48.954 0 0 0
1440 3 8 0.140906 78.864 30.544 48.66 0 0 0
1445 3 6 0.163518 80.786 31.324 48.195 0 0 0
1447 3 8 0.148865 82.569 30.463 47.585 0 0 0
1453 3 11 -0.394161 80.924 33.688 48.462 0 0 0
1454 3 8 0.143626 80.028 34.128 48.456 0 0 0
1459 3 6 0.157608 81.401 36.475 47.816 0 0 0
1468 3 8 0.144351 80.095 38.143 47.656 0 0 0
1467 3 11 -0.395985 80.723 38.873 47.673 0 0 0
1560 3 9 0.134279 77.6 57.956 47.313 0 0 0
1561 3 3 -0.048263 76.608 58.379 47.637 0 0 0
1562 3 4 -0.0726892 76.812 59.478 48.73 0 0 0
1563 3 1 0.134008 76.051 57.587 48.196 0 0 0
1564 3 6 0.155931 75.732 59.889 48.922 0 0 0
1565 3 11 -0.396316 77.498 60.586 48.265 0 0 0
1566 3 8 0.158249 78.01 60.849 49.04 0 0 0
1567 3 9 0.133715 78.585 58.533 49.636 0 0 0
1568 3 3 -0.042236 77.558 58.988 49.912 0 0 0
1569 3 4 -0.0701015 77.747 60.083 50.993 0 0 0
1570 3 1 0.133067 77.07 58.179 50.397 0 0 0
1571 3 6 0.159819 76.744 60.582 51.211 0 0 0
1572 3 11 -0.392531 78.703 61.07 50.56 0 0 0
1573 3 8 0.155064 78.625 61.701 51.27 0 0 0
1574 3 9 0.13489 79.26 59.275 52.26 0 0 0
1575 3 3 -0.0453226 78.211 59.604 52.334 0 0 0
1577 3 1 0.141524 77.722 58.701 52.657 0 0 0
401 1 9 0.142003 145.966 90.506 52.018 0 0 0
402 1 3 -0.0388881 145.439 91.448 52.107 0 0 0
403 1 4 -0.0643934 144.246 91.687 51.206 0 0 0
404 1 1 0.139118 146.306 92.083 51.761 0 0 0
405 1 6 0.1575 143.24 91.581 51.707 0 0 0
406 1 11 -0.394558 144.333 90.817 50.102 0 0 0
407 1 8 0.158458 143.679 91.11 49.455 0 0 0
413 1 11 -0.391585 142.455 92.625 48.856 0 0 0
419 1 6 0.16189 141.136 95.012 48.058 0 0 0
420 1 11 -0.400648 140.826 95.782 50.021 0 0 0
421 1 8 0.140955 140.299 96.552 49.853 0 0 0
424 1 4 -0.0827115 140.758 97.693 47.693 0 0 0
426 1 6 0.154074 140.202 98.026 48.617 0 0 0
408 1 9 0.133655 144.883 93.189 49.576 0 0 0
409 1 3 -0.0440567 144.203 93.09 50.478 0 0 0