LAMMPS data file via write_data, version 15 Sep 2022, timestep = 0

6684 atoms
18 atom types
6640 bonds
16 bond types
12076 angles
27 angle types
18888 dihedrals
28 dihedral types

0.608005 180.608005 xlo xhi
-0.152998 179.847002 ylo yhi
-0.414498 179.585502 zlo zhi

Masses

1 1.00794
2 1.00794
3 12.0107
4 12.0107
5 1.00794
6 1.008
7 1.00794
8 1.00794
9 1.00794
10 1.00794
11 15.999
12 15.9994
13 15.9994
14 28.085501
15 12.0107
16 12.0107
17 1.00794
18 15.9994

Pair Coeffs # lj/cut

1 0.038 2.44997
2 0.038 2.44997
3 0.039 3.87541
4 0.039 3.87541
5 0.038 2.44997
6 0 1
7 0.038 2.44997
8 0.038 2.44997
9 0 0
10 0.038 2.44997
11 0.1521 3.1507
12 0.228 2.85978
13 0.228 2.85978
14 0.04 4.05343
15 0.148 3.61705
16 0.039 3.87541
17 0.038 2.44997
18 0.228 2.85978

Bond Coeffs # harmonic

1 340.618 1.105
2 340.618 1.105
3 322.716 1.526
4 340.618 1.105
5 340.618 1.105
6 340.618 1.105
7 384 1.42
8 540.634 0.96
9 450 0.9572
10 540.634 0.96
11 392.8 1.665
12 283.092 1.52
13 340.618 1.105
14 615.322 1.23
15 322.716 1.526
16 340.618 1.105

Angle Coeffs # harmonic

1 39.5 106.4
2 44.4 110
3 39.5 106.4
4 44.4 110
5 39.5 106.4
6 46.6 110.5
7 44.4 110
8 44.4 110
9 70 109.5
10 46.6 110.5
11 44.4 110
12 58.5 106
13 33.3 113.4
14 55 104.52
15 39.5 106.4
16 57 109.5
17 57 109.5
18 42.3 113.1
19 31.1 149.8
20 46.6 110.5
21 45 109.5
22 50 120
23 68 120
24 46.6 110.5
25 44.4 110
26 55 120
27 39.5 106.4

Dihedral Coeffs # harmonic

1 0.158 1 3
2 0.158 1 3
3 0.158 1 3
4 0.158 1 3
5 0.158 1 3
6 0.158 1 3
7 0.158 1 3
8 0.13 1 3
9 0.158 1 3
10 0.158 1 3
11 0.158 1 3
12 0.158 1 3
13 1 1 3
14 0.13 1 3
15 0.13 1 3
16 0.158 1 3
17 0.158 1 3
18 0.158 1 3
19 0.158 1 3
20 0.3 1 3
21 0.158 1 3
22 0.158 1 3
23 0.158 1 3
24 0 1 0
25 0 1 0
26 0.158 1 3
27 0 1 0
28 0 1 0

Atoms # full

6138 35 18 -0.397713 155.82 133.822 3.352 0 0 0
6127 35 15 -0.0381924 156.851 133.181 3.286 0 0 0
6128 35 16 -0.0359439 158.205 133.837 3.338 0 0 0
6129 35 16 -0.0493303 158.12 135.365 3.483 0 0 0
6130 35 17 0.156793 158.759 133.596 2.392 0 0 0
6131 35 17 0.148051 158.763 133.421 4.207 0 0 0
6132 35 16 -0.039796 159.52 135.993 3.533 0 0 0
6133 35 17 0.173766 157.581 135.608 4.416 0 0 0
6134 35 17 0.174882 157.556 135.785 2.624 0 0 0
6135 35 15 -0.0484578 159.446 137.486 3.663 0 0 0
6136 35 17 0.16611 160.072 135.744 2.595 0 0 0
6137 35 17 0.152136 160.076 135.585 4.408 0 0 0
6139 35 17 0.165092 156.792 132.095 3.195 0 0 0
6140 35 18 -0.4094 160.47 138.143 3.718 0 0 0
6141 35 17 0.143915 158.492 137.985 3.717 0 0 0
5946 22 17 0.150897 170.277 142.959 1.784 0 0 0
5932 22 15 -0.0521891 173.273 146.026 4.537 0 0 0
5933 22 16 -0.0410312 171.978 146.201 3.79 0 0 0
5934 22 16 -0.0477614 171.499 144.905 3.117 0 0 0
5935 22 17 0.153855 172.121 146.986 3 0 0 0
5936 22 17 0.153834 171.201 146.543 4.511 0 0 0
5937 22 16 -0.0383099 170.177 145.128 2.368 0 0 0
5938 22 17 0.175495 171.35 144.133 3.891 0 0 0
5939 22 17 0.175507 172.272 144.554 2.403 0 0 0
5940 22 15 -0.0435772 169.708 143.87 1.699 0 0 0
5941 22 17 0.155315 170.319 145.916 1.59 0 0 0
5942 22 17 0.158946 169.396 145.461 3.091 0 0 0
5943 22 18 -0.414641 173.854 144.958 4.58 0 0 0
5944 22 17 0.148432 173.702 146.88 5.063 0 0 0
5945 22 18 -0.403794 168.67 143.872 1.061 0 0 0
1405 3 10 0.150332 173.916 7.222 10.574 0 0 0
1406 3 3 -0.0481431 173.557 7.68 11.514 0 0 0
1409 3 2 0.143715 172.725 8.271 11.072 0 0 0
1413 3 10 0.135788 174.307 10.246 11.116 0 0 0
1414 3 3 -0.038993 175.227 9.625 11.354 0 0 0
1416 3 1 0.132284 175.624 9.303 10.422 0 0 0
1420 3 10 0.128945 176.954 11.624 10.553 0 0 0
1425 3 12 -0.406323 174.525 12.884 11.257 0 0 0
1426 3 9 0.145049 174.31 13.803 11.308 0 0 0
1427 3 10 0.131803 177.129 14.148 10.725 0 0 0
1431 3 7 0.154803 175.386 15.634 10.63 0 0 0
1437 3 1 0.13182 177.479 16.826 11.458 0 0 0
5692 6 15 -0.0517081 119.343 36.538 10.453 0 0 0
5693 6 16 -0.0407847 119.366 38.024 10.697 0 0 0
5694 6 16 -0.0477614 117.973 38.665 10.591 0 0 0
5695 6 17 0.154266 120.041 38.503 9.939 0 0 0
5697 6 16 -0.0383312 118.041 40.177 10.847 0 0 0
5698 6 17 0.175716 117.306 38.201 11.339 0 0 0
5699 6 17 0.175733 117.559 38.48 9.578 0 0 0
5700 6 15 -0.0489885 116.687 40.813 10.735 0 0 0
5701 6 17 0.155258 118.721 40.65 10.098 0 0 0
5703 6 18 -0.414253 118.315 35.941 10.198 0 0 0
5704 6 17 0.148704 120.277 35.977 10.514 0 0 0
5706 6 17 0.147098 115.819 40.217 10.507 0 0 0
5705 6 18 -0.407665 116.562 42.012 10.911 0 0 0
5928 21 18 -0.414253 77.709 133.708 10.03 0 0 0
5917 21 15 -0.0517068 78.873 133.356 10.079 0 0 0
5918 21 16 -0.0407837 80.01 134.337 9.967 0 0 0
5919 21 16 -0.0477614 79.53 135.787 9.793 0 0 0
5920 21 17 0.154269 80.641 134.057 9.082 0 0 0
5921 21 17 0.154277 80.624 134.268 10.894 0 0 0
5922 21 16 -0.0383323 80.719 136.752 9.684 0 0 0
5923 21 17 0.17572 78.914 136.068 10.665 0 0 0
5924 21 17 0.175733 78.909 135.86 8.876 0 0 0
5926 21 17 0.15526 81.35 136.466 8.808 0 0 0
5927 21 17 0.155306 81.33 136.691 10.614 0 0 0
5929 21 17 0.148705 79.097 132.297 10.217 0 0 0
5925 21 15 -0.0489871 80.259 138.168 9.502 0 0 0
5930 21 18 -0.407666 81.078 139.064 9.4 0 0 0
5931 21 17 0.1471 79.208 138.403 9.469 0 0 0
1407 3 4 -0.0557615 174.601 8.489 12.203 0 0 0
1408 3 1 0.151333 173.18 6.838 12.08 0 0 0
1411 3 12 -0.391793 173.852 9.118 13.242 0 0 0
1412 3 9 0.138998 173.106 9.518 12.796 0 0 0
1410 3 7 0.163793 175.402 7.84 12.622 0 0 0
1415 3 4 -0.0783278 176.283 10.395 12.226 0 0 0
1417 3 7 0.1564 175.877 10.549 13.242 0 0 0
1418 3 12 -0.404731 177.44 9.549 12.338 0 0 0
1419 3 9 0.136011 178.034 9.881 11.709 0 0 0
1421 3 3 -0.055638 176.718 11.702 11.618 0 0 0
1422 3 4 -0.0767919 175.822 12.892 11.915 0 0 0
1423 3 1 0.133069 177.755 11.915 12.087 0 0 0
1424 3 7 0.157616 175.607 12.847 13.043 0 0 0
1428 3 3 -0.0565165 176.592 14.198 11.704 0 0 0
1429 3 4 -0.0872444 175.769 15.536 11.693 0 0 0
1430 3 1 0.128837 177.476 14.306 12.409 0 0 0
1432 3 12 -0.397742 174.659 15.486 12.627 0 0 0
1433 3 9 0.154669 175.076 15.894 13.419 0 0 0
1434 3 10 0.12889 175.966 17.717 11.738 0 0 0
1435 3 3 -0.0561066 176.508 16.808 12.034 0 0 0
1436 3 4 -0.0892882 176.876 16.973 13.522 0 0 0
1438 3 7 0.149134 177.737 16.204 13.767 0 0 0
1439 3 12 -0.410749 175.743 16.868 14.392 0 0 0
1440 3 9 0.138897 175.646 17.685 14.874 0 0 0
1445 3 7 0.16073 177.486 17.808 15.929 0 0 0
1447 3 9 0.146318 179.396 17.091 15.563 0 0 0
1441 3 10 0.128943 176.856 19.176 13.425 0 0 0
1442 3 3 -0.0522321 177.539 18.344 13.698 0 0 0
1443 3 4 -0.0792443 178.066 18.472 15.212 0 0 0
1444 3 1 0.130193 178.436 18.497 13.056 0 0 0
1446 3 12 -0.402544 179.427 17.995 15.27 0 0 0
1448 3 10 0.134399 176.698 20.138 15.528 0 0 0
1449 3 3 -0.0498895 177.797 19.883 15.732 0 0 0
1450 3 4 -0.0749983 178.196 19.889 17.237 0 0 0
1451 3 1 0.132109 178.492 20.586 15.238 0 0 0
1452 3 7 0.161382 179.236 19.452 17.397 0 0 0
1458 3 1 0.128115 178.654 21.979 17.198 0 0 0
5696 6 17 0.154274 119.771 38.205 11.718 0 0 0
5702 6 17 0.155304 118.438 40.36 11.872 0 0 0
6655 11 11 -0.834 90.414 65.386 13.941 0 0 0
6656 11 6 0.417 89.634 64.897 14.204 0 0 0
6657 11 6 0.417 91.136 64.943 14.387 0 0 0
5635 2 17 0.154269 76.176 83.75 13.127 0 0 0
5632 2 15 -0.0517066 78.288 84.137 13.179 0 0 0
5633 2 16 -0.0407841 76.873 84.557 13.479 0 0 0
5634 2 16 -0.0477614 76.63 84.8 14.977 0 0 0
5636 2 17 0.154276 76.66 85.496 12.919 0 0 0
5637 2 16 -0.0383298 75.178 85.226 15.237 0 0 0
5638 2 17 0.175723 77.309 85.598 15.325 0 0 0
5639 2 17 0.175733 76.849 83.871 15.541 0 0 0
5640 2 15 -0.0489856 74.929 85.456 16.699 0 0 0
5641 2 17 0.155259 74.486 84.427 14.878 0 0 0
5642 2 17 0.155307 74.966 86.172 14.686 0 0 0
5644 2 17 0.148704 78.576 83.947 12.144 0 0 0
5645 2 18 -0.407665 73.825 85.802 17.08 0 0 0
5646 2 17 0.1471 75.722 85.325 17.417 0 0 0
5643 2 18 -0.414256 79.123 84.012 14.054 0 0 0
4226 7 12 -0.404631 111.001 95.502 16.053 0 0 0
4227 7 9 0.136073 111.501 94.731 15.934 0 0 0
4228 7 10 0.129049 113.604 95.081 16.932 0 0 0
4229 7 3 -0.0555073 112.829 95.494 17.582 0 0 0
4213 7 10 0.15038 112.425 99.084 13.587 0 0 0
4214 7 3 -0.0480599 111.969 99.493 14.508 0 0 0
4215 7 4 -0.0556642 111.464 98.434 15.426 0 0 0
4216 7 1 0.151379 111.215 100.175 14.137 0 0 0
4217 7 2 0.143763 112.863 100.042 14.875 0 0 0
4218 7 7 0.163848 110.571 97.923 15.001 0 0 0
4219 7 12 -0.39169 111.124 99.187 16.589 0 0 0
4220 7 9 0.13907 111.905 99.703 16.783 0 0 0
4221 7 10 0.135882 113.282 98.049 16.377 0 0 0
4222 7 3 -0.0388572 112.517 97.383 15.867 0 0 0
4223 7 4 -0.0781672 111.839 96.359 16.847 0 0 0
4224 7 1 0.132349 113.02 96.906 15.062 0 0 0
4225 7 7 0.156492 111.191 96.904 17.557 0 0 0
6664 14 11 -0.834 76.645 150.416 14.523 0 0 0
6665 14 6 0.417 77.535 150.361 14.87 0 0 0
6666 14 6 0.417 76.579 151.303 14.17 0 0 0
1453 3 12 -0.398175 177.306 19.001 17.984 0 0 0
1454 3 9 0.141219 176.5 19.589 18.017 0 0 0
1455 3 10 0.129449 177.03 21.575 17.715 0 0 0
1456 3 3 -0.0581384 178.107 21.265 17.824 0 0 0
1457 3 4 -0.0831282 178.539 21.526 19.3 0 0 0
1459 3 7 0.154159 177.839 20.98 20.037 0 0 0
1460 3 12 -0.407467 179.891 21.026 19.527 0 0 0
1461 3 9 0.144463 180.008 21.19 20.508 0 0 0
1462 3 10 0.12878 177.709 23.468 19.146 0 0 0
1463 3 3 -0.0499199 178.526 23.009 19.657 0 0 0
1464 3 4 -0.0831765 178.364 23.387 21.137 0 0 0
1465 3 1 0.133214 179.489 23.343 19.283 0 0 0
1466 3 7 0.157885 179.286 23.092 21.717 0 0 0
1467 3 12 -0.400758 177.149 22.774 21.629 0 0 0
1468 3 9 0.141537 176.665 22.567 20.823 0 0 0
1469 3 10 0.129424 177.505 25.403 20.656 0 0 0
1470 3 3 -0.0495155 178.309 24.991 21.253 0 0 0
1471 3 4 -0.0792765 177.927 25.598 22.635 0 0 0
1472 3 1 0.132184 179.245 25.408 20.949 0 0 0
1473 3 7 0.160285 176.807 25.38 22.83 0 0 0
1475 3 9 0.147885 178.583 24.042 23.253 0 0 0
1476 3 10 0.130385 177.99 27.635 21.633 0 0 0
1477 3 3 -0.0510104 178.259 27.102 22.625 0 0 0
1479 3 1 0.132313 179.347 27.345 22.669 0 0 0
1481 3 12 -0.410848 176.11 27.888 23.335 0 0 0
1482 3 9 0.132702 176.017 28.762 22.978 0 0 0
1487 3 7 0.149249 178.695 29.763 22.024 0 0 0
1493 3 1 0.130498 176.221 29.837 21.514 0 0 0
1497 3 10 0.127344 174.418 32.269 21.328 0 0 0
1502 3 12 -0.397731 173.9 33.024 18.967 0 0 0
1503 3 9 0.154406 173.475 33.642 19.543 0 0 0
1506 3 4 -0.0831027 173.939 35.235 20.767 0 0 0
1508 3 7 0.151433 173.521 34.607 21.595 0 0 0
1509 3 12 -0.398052 172.938 35.442 19.791 0 0 0
1485 3 4 -0.0901881 177.979 30.247 22.749 0 0 0
1488 3 12 -0.400829 178.47 31.415 23.344 0 0 0
1489 3 9 0.147227 178.217 32.102 22.676 0 0 0
1490 3 10 0.127478 175.893 30.72 22.925 0 0 0
1491 3 3 -0.0535518 176.622 30.623 22.117 0 0 0
1492 3 4 -0.0866429 176.643 31.792 21.131 0 0 0
1494 3 7 0.149777 177.313 31.519 20.269 0 0 0
1495 3 12 -0.411286 177.098 32.938 21.864 0 0 0
1496 3 9 0.136848 176.473 33.034 22.6 0 0 0
1498 3 3 -0.0615606 175.222 32.125 20.587 0 0 0
1499 3 4 -0.0825607 175.182 33.207 19.527 0 0 0
1500 3 1 0.132302 174.887 31.158 20.156 0 0 0
1501 3 7 0.154342 175.948 32.97 18.769 0 0 0
1504 3 10 0.135523 175.396 35.346 19.093 0 0 0
1505 3 3 -0.0466685 175.213 34.667 20.012 0 0 0
1507 3 1 0.136691 176.075 34.901 20.757 0 0 0
1510 3 9 0.152064 172.37 36.192 20.189 0 0 0
1511 3 10 0.131372 174.269 37.399 20.554 0 0 0
1512 3 3 -0.0524905 174.135 36.609 21.32 0 0 0
1513 3 4 -0.0856252 173.007 37.088 22.289 0 0 0
1515 3 7 0.154696 173.072 38.168 22.565 0 0 0
1516 3 12 -0.400587 171.752 36.883 21.704 0 0 0
1517 3 9 0.150288 171.047 36.854 22.364 0 0 0
1514 3 1 0.126987 175.078 36.606 21.869 0 0 0
5662 4 15 -0.0517089 72.176 52.423 20.971 0 0 0
5663 4 16 -0.0407851 71.38 52.307 19.698 0 0 0
5664 4 16 -0.0477614 69.866 52.428 19.93 0 0 0
5665 4 17 0.154266 71.594 51.31 19.229 0 0 0
5666 4 17 0.154276 71.707 53.117 19.006 0 0 0
5667 4 16 -0.0383302 69.094 52.305 18.609 0 0 0
5668 4 17 0.175722 69.65 53.41 20.386 0 0 0
5669 4 17 0.175734 69.536 51.63 20.627 0 0 0
5670 4 15 -0.0489866 67.614 52.412 18.828 0 0 0
5671 4 17 0.155258 69.316 51.317 18.14 0 0 0
5672 4 17 0.155307 69.412 53.121 17.919 0 0 0
5673 4 18 -0.414259 71.644 52.592 22.052 0 0 0
5675 4 18 -0.407664 66.852 52.336 17.88 0 0 0
5676 4 17 0.147098 67.216 52.562 19.818 0 0 0
5674 4 17 0.148704 73.265 52.363 20.923 0 0 0
2919 5 7 0.154832 144.357 58.231 22.838 0 0 0
2929 5 10 0.132279 142.179 58.321 23.56 0 0 0
2910 5 4 -0.0826925 147.586 59.664 23.171 0 0 0
2913 5 12 -0.397831 148.219 58.405 23.286 0 0 0
2914 5 9 0.152175 147.439 57.757 23.406 0 0 0
2915 5 10 0.131527 146.428 58.678 21.581 0 0 0
2916 5 3 -0.0520788 146.308 59.317 22.48 0 0 0
2917 5 4 -0.0853247 145.238 58.637 23.392 0 0 0
2893 5 9 0.1466 148.046 65.278 22.989 0 0 0
2896 5 4 -0.0864394 149.44 63.63 23.538 0 0 0
2898 5 7 0.149971 150.294 63.908 22.861 0 0 0
2899 5 12 -0.413661 148.163 63.67 22.886 0 0 0
2900 5 9 0.134882 147.516 63.465 23.581 0 0 0
2903 5 4 -0.0822563 149.823 61.131 22.97 0 0 0
2905 5 7 0.154668 150.573 61.504 22.254 0 0 0
2908 5 10 0.135772 148.854 59.981 21.374 0 0 0
2909 5 3 -0.046174 148.543 60.588 22.309 0 0 0
2911 5 1 0.137055 147.82 61.415 21.925 0 0 0
2918 5 1 0.127251 145.886 60.245 22.094 0 0 0
2892 5 12 -0.401848 147.942 66.107 23.521 0 0 0
4231 7 1 0.133167 112.229 94.55 17.882 0 0 0
4235 7 10 0.131901 114.598 94.304 19.131 0 0 0
4236 7 3 -0.056493 113.97 94.993 19.749 0 0 0
4238 7 1 0.128934 113.171 94.266 20.103 0 0 0
4244 7 4 -0.0893043 113.684 94.373 23.008 0 0 0
4246 7 7 0.149117 112.86 93.803 22.384 0 0 0
4247 7 12 -0.412438 113.252 95.643 23.509 0 0 0
4237 7 4 -0.0872249 114.856 95.427 20.971 0 0 0
4239 7 7 0.154861 115.899 95.555 20.545 0 0 0
4242 7 10 0.127617 115.787 94.693 22.813 0 0 0
4243 7 3 -0.0561655 114.951 94.47 22.135 0 0 0
4245 7 1 0.131805 115.146 93.433 21.734 0 0 0
4230 7 4 -0.0766915 113.411 96.096 18.848 0 0 0
4232 7 7 0.157717 112.519 96.534 19.425 0 0 0
4233 7 12 -0.406196 114.342 97.196 18.652 0 0 0
4240 7 12 -0.398864 114.391 96.675 21.549 0 0 0
4241 7 9 0.153847 113.801 96.332 22.258 0 0 0
4234 7 9 0.14387 114.798 97.175 19.48 0 0 0
1474 3 12 -0.403726 178.667 24.922 23.664 0 0 0
1478 3 4 -0.0757939 177.475 27.856 23.723 0 0 0
1480 3 7 0.158742 177.653 27.335 24.707 0 0 0
1483 3 10 0.133502 178.898 29.225 24.293 0 0 0
1484 3 3 -0.0538201 177.847 29.311 23.943 0 0 0
1486 3 1 0.133007 177.3 29.788 24.761 0 0 0
1521 3 1 0.131505 172.849 35.189 23.665 0 0 0
1518 3 10 0.125582 174.019 36.345 24.023 0 0 0
1519 3 3 -0.0601663 172.984 36.32 23.659 0 0 0
1520 3 4 -0.0789765 172.123 36.955 24.746 0 0 0
1522 3 7 0.149568 172.175 36.25 25.55 0 0 0
1523 3 12 -0.395216 170.746 37.004 24.428 0 0 0
1524 3 9 0.156778 170.452 37.9 24.698 0 0 0
1525 3 10 0.132218 172.63 39.033 24.646 0 0 0
1526 3 3 -0.0534993 172.55 38.28 25.423 0 0 0
1527 3 4 -0.0820719 171.66 38.729 26.615 0 0 0
1528 3 1 0.129406 173.581 38.258 25.737 0 0 0
1529 3 7 0.152125 171.482 37.862 27.335 0 0 0
1530 3 12 -0.400665 170.385 39.049 26.1 0 0 0
1531 3 9 0.149369 170.027 39.684 26.673 0 0 0
1532 3 10 0.135967 172.093 40.824 26.85 0 0 0
1533 3 3 -0.0528055 172.279 39.901 27.402 0 0 0
1534 3 4 -0.0875531 171.629 40.086 28.807 0 0 0
1535 3 1 0.12941 173.362 39.785 27.417 0 0 0
1536 3 7 0.146361 171.377 39.087 29.216 0 0 0
1537 3 12 -0.410554 170.391 40.805 28.582 0 0 0
1538 3 9 0.138938 170.28 41.488 29.252 0 0 0
1542 3 1 0.128597 173.759 40.667 29.538 0 0 0
1539 3 10 0.130784 172.6 41.9 29.472 0 0 0
2938 5 4 -0.0872779 138.238 58.771 25.482 0 0 0
2940 5 7 0.146641 138.526 59.282 26.422 0 0 0
2941 5 12 -0.410316 137.962 57.382 25.792 0 0 0
2942 5 9 0.139169 137.013 57.221 25.765 0 0 0
2943 5 10 0.13089 136.61 58.812 24.06 0 0 0
2944 5 3 -0.0480722 137.07 59.533 24.721 0 0 0
2947 5 7 0.152332 135.63 59.148 26.238 0 0 0
2924 5 4 -0.078738 143.371 59.083 25.168 0 0 0
2926 5 7 0.149711 143.169 59.83 25.908 0 0 0
2927 5 12 -0.395105 143.578 57.906 25.924 0 0 0
2928 5 9 0.156789 142.812 57.33 25.716 0 0 0
2930 5 3 -0.053367 142.027 58.984 24.406 0 0 0
2931 5 4 -0.0817965 140.802 58.59 25.276 0 0 0
2933 5 7 0.152333 140.764 59.217 26.227 0 0 0
2934 5 12 -0.400671 140.999 57.263 25.715 0 0 0
2935 5 9 0.149356 140.154 56.904 25.84 0 0 0
2936 5 10 0.136023 139.335 57.904 23.858 0 0 0
2937 5 3 -0.0524954 139.467 58.759 24.523 0 0 0
2939 5 1 0.129639 139.538 59.628 23.868 0 0 0
2907 5 9 0.154578 149.525 59.647 23.871 0 0 0
2920 5 12 -0.400377 145.813 57.572 24.096 0 0 0
2921 5 9 0.150371 145.302 57.342 24.883 0 0 0
2923 5 3 -0.0598328 144.627 59.598 24.474 0 0 0
2945 5 4 -0.0829218 135.97 60.025 25.712 0 0 0
2946 5 1 0.128812 137.326 60.346 24.034 0 0 0
2948 5 12 -0.396558 134.898 60.582 24.92 0 0 0
2949 5 9 0.152666 134.453 61.105 25.602 0 0 0
2950 5 10 0.129212 136.766 62.069 26.157 0 0 0
2951 5 3 -0.0527502 136.447 61.155 26.698 0 0 0
2952 5 4 -0.0768301 135.384 61.514 27.69 0 0 0
2953 5 1 0.130488 137.34 60.741 27.232 0 0 0
2954 5 7 0.158024 134.983 60.553 28.086 0 0 0
2955 5 12 -0.392787 134.31 62.122 26.96 0 0 0
2956 5 9 0.15697 133.979 62.804 27.594 0 0 0
2957 5 10 0.129956 136.348 63.358 28.164 0 0 0
2958 5 3 -0.0497585 135.91 62.565 28.757 0 0 0
2960 5 1 0.132134 136.696 62.08 29.387 0 0 0
2962 5 12 -0.391793 133.792 63.748 28.852 0 0 0
2963 5 9 0.155817 133.274 64.244 29.521 0 0 0
2922 5 10 0.125811 144.336 60.503 23.926 0 0 0
2932 5 1 0.12949 141.804 59.89 23.865 0 0 0
2886 5 9 0.132249 149.835 65.538 26.568 0 0 0
2894 5 10 0.126908 148.674 64.392 25.477 0 0 0
2895 5 3 -0.0564775 149.379 64.644 24.681 0 0 0
2897 5 1 0.132131 150.333 64.508 25.143 0 0 0
2901 5 10 0.127534 148.969 61.816 24.844 0 0 0
2902 5 3 -0.0613055 149.651 62.175 24.055 0 0 0
2904 5 1 0.132502 150.581 62.256 24.655 0 0 0
2906 5 12 -0.397398 150.363 60.045 23.69 0 0 0
2912 5 7 0.151677 147.313 60.033 24.194 0 0 0
2925 5 1 0.13172 145.316 60.097 25.232 0 0 0
2882 5 4 -0.0772716 149.818 67.406 26.454 0 0 0
2884 5 7 0.157842 149.363 68.224 27.081 0 0 0
2885 5 12 -0.41176 150.091 66.216 27.18 0 0 0
2887 5 10 0.132488 148.542 67.975 24.946 0 0 0
2888 5 3 -0.0552779 148.755 67.006 25.446 0 0 0
2889 5 4 -0.0913936 149.125 66.11 24.272 0 0 0
2890 5 1 0.132047 147.811 66.693 25.902 0 0 0
2891 5 7 0.148611 150.001 66.59 23.749 0 0 0
2865 5 9 0.144631 156.474 71.442 27.224 0 0 0
2866 5 10 0.129087 156.127 67.971 26.822 0 0 0
2867 5 3 -0.049428 156.014 69.031 26.771 0 0 0
2868 5 4 -0.0827802 154.612 69.334 27.322 0 0 0
2869 5 1 0.133519 156.114 69.411 25.759 0 0 0
2870 5 7 0.158263 154.345 70.414 27.135 0 0 0
2871 5 12 -0.400295 154.588 68.964 28.721 0 0 0
2872 5 9 0.141826 155.346 68.377 28.807 0 0 0
2873 5 10 0.129719 153.745 67.434 26.5 0 0 0
2874 5 3 -0.0492579 153.536 68.496 26.468 0 0 0
2875 5 4 -0.0802697 152.068 68.473 26.988 0 0 0
2876 5 1 0.132489 153.528 68.84 25.456 0 0 0
2877 5 7 0.158371 152.036 67.842 27.958 0 0 0
2878 5 12 -0.404618 151.678 69.808 27.349 0 0 0
2879 5 9 0.147267 152.542 70.037 27.738 0 0 0
2880 5 10 0.128403 151.609 67.026 25.299 0 0 0
2881 5 3 -0.0522142 151.156 67.922 25.877 0 0 0
2883 5 1 0.131533 150.983 68.617 25.021 0 0 0
2847 5 4 -0.0792299 162.303 69.219 27.754 0 0 0
2849 5 7 0.160722 162.139 69.44 28.856 0 0 0
2850 5 12 -0.402539 162.564 70.5 27.144 0 0 0
2852 5 10 0.134441 161.017 67.462 27.838 0 0 0
2853 5 3 -0.049812 161.024 68.494 27.339 0 0 0
2854 5 4 -0.0748013 159.836 69.417 27.742 0 0 0
2855 5 1 0.132146 160.989 68.43 26.236 0 0 0
2856 5 7 0.161449 159.989 70.483 27.371 0 0 0
2857 5 12 -0.398088 159.782 69.54 29.198 0 0 0
2858 5 9 0.141305 159.387 68.648 29.41 0 0 0
2859 5 10 0.129605 158.412 67.867 27.75 0 0 0
2860 5 3 -0.0578464 158.527 68.873 27.256 0 0 0
2861 5 4 -0.0827392 157.207 69.673 27.474 0 0 0
2862 5 1 0.128273 158.588 68.638 26.187 0 0 0
2863 5 7 0.15437 156.953 69.752 28.597 0 0 0
2864 5 12 -0.407204 157.347 71.031 26.959 0 0 0
2831 5 10 0.131797 168.49 68.923 28.914 0 0 0
2833 5 4 -0.0872899 166.86 67.592 29.448 0 0 0
2834 5 1 0.12882 167.067 69.803 29.342 0 0 0
2835 5 7 0.154787 167.634 66.812 29.171 0 0 0
2838 5 10 0.128844 165.487 66.607 28.053 0 0 0
2839 5 3 -0.0561791 165.817 67.611 28.355 0 0 0
2840 5 4 -0.089383 164.545 68.42 28.678 0 0 0
2841 5 1 0.131782 166.271 68.078 27.433 0 0 0
2842 5 7 0.149069 164.833 69.564 28.661 0 0 0
2845 5 10 0.128903 163.269 67.204 27.353 0 0 0
2846 5 3 -0.0522908 163.571 68.262 27.504 0 0 0
2848 5 1 0.130132 163.993 68.575 26.523 0 0 0
2851 5 9 0.146283 162.887 71.076 27.828 0 0 0
4248 7 9 0.137984 113.267 95.622 24.462 0 0 0
4250 7 3 -0.0522178 113.984 93.43 24.179 0 0 0
4251 7 4 -0.0790795 112.63 93.197 25.015 0 0 0
4252 7 1 0.130263 114.32 92.415 23.865 0 0 0
4253 7 7 0.160915 111.897 94.057 24.898 0 0 0
4254 7 12 -0.402397 111.95 92.042 24.481 0 0 0
4255 7 9 0.146416 111.29 92.36 23.874 0 0 0
4256 7 10 0.133278 113.563 94.129 26.749 0 0 0
4257 7 3 -0.0496644 112.944 93.193 26.509 0 0 0
4258 7 4 -0.0746947 111.579 93.111 27.253 0 0 0
4259 7 1 0.132238 113.477 92.259 26.763 0 0 0
4260 7 7 0.161498 110.929 92.27 26.844 0 0 0
4261 7 12 -0.398018 110.808 94.327 27 0 0 0
4262 7 9 0.140061 111.299 94.946 27.61 0 0 0
4263 7 10 0.129759 112.326 93.878 29.066 0 0 0
4264 7 3 -0.0577607 111.767 92.959 28.732 0 0 0
4266 7 1 0.128391 112.458 92.136 28.943 0 0 0
4268 7 12 -0.407104 109.706 91.667 29.208 0 0 0
4249 7 10 0.129096 114.808 93.81 24.82 0 0 0
6640 6 11 -0.834 84.39 107.3 28.42 0 0 0
6641 6 6 0.417 83.468 107.07 28.533 0 0 0
6642 6 6 0.417 84.797 107.078 29.258 0 0 0
6100 33 17 0.154273 114.231 107.45 28.766 0 0 0
6101 33 17 0.154281 114.452 107.73 26.977 0 0 0
6097 33 15 -0.050399 115.944 106.5 27.884 0 0 0
6098 33 16 -0.040783 114.98 107.655 27.955 0 0 0
6108 33 18 -0.414255 117.139 106.646 28.053 0 0 0
6109 33 17 0.148756 115.561 105.502 27.667 0 0 0
6106 33 17 0.155228 113.909 109.931 29.115 0 0 0
6107 33 17 0.155273 114.135 110.224 27.333 0 0 0
6099 33 16 -0.0477614 115.675 108.993 28.252 0 0 0
6102 33 16 -0.0383317 114.658 110.141 28.314 0 0 0
6103 33 17 0.17572 116.408 109.201 27.453 0 0 0
6104 33 17 0.175738 116.212 108.921 29.22 0 0 0
6105 33 15 -0.0490268 115.327 111.449 28.614 0 0 0
6110 33 18 -0.407693 114.663 112.467 28.698 0 0 0
6111 33 17 0.147071 116.395 111.5 28.75 0 0 0
6675 17 6 0.417 117.096 125.753 25.913 0 0 0
6673 17 11 -0.834 116.805 126.619 25.625 0 0 0
6674 17 6 0.417 115.868 126.515 25.461 0 0 0
6639 5 6 0.417 2.226 29.83 32.905 0 0 0
6637 5 11 -0.834 1.717 30.202 32.185 0 0 0
6638 5 6 0.417 0.805 30.071 32.443 0 0 0
1560 3 10 0.131579 173.252 35.694 35.484 0 0 0
1563 3 1 0.132936 171.5 35.388 35.094 0 0 0
1540 3 3 -0.048058 172.694 40.849 29.708 0 0 0
1541 3 4 -0.0829201 172.378 40.682 31.226 0 0 0
1543 3 7 0.152447 171.373 41.044 31.363 0 0 0
1544 3 12 -0.392025 173.313 41.512 31.951 0 0 0
1545 3 9 0.156223 173.235 41.109 32.827 0 0 0
1546 3 10 0.131129 173.598 38.855 31.655 0 0 0
1547 3 3 -0.0527963 172.555 39.214 31.766 0 0 0
1548 3 4 -0.0771771 172.141 39.095 33.2 0 0 0
1549 3 1 0.130419 171.898 38.57 31.127 0 0 0
1550 3 7 0.157668 171.16 39.615 33.292 0 0 0
1551 3 12 -0.393308 173.071 39.863 33.976 0 0 0
1552 3 9 0.156823 173.145 39.334 34.807 0 0 0
1553 3 10 0.130321 173.195 37.253 33.426 0 0 0
1554 3 3 -0.0523012 172.205 37.591 33.705 0 0 0
1555 3 4 -0.081728 171.982 37.492 35.221 0 0 0
1556 3 1 0.130245 171.43 36.994 33.164 0 0 0
1557 3 7 0.154605 171.011 37.853 35.495 0 0 0
2959 5 4 -0.0793524 134.772 63.088 29.645 0 0 0
2961 5 7 0.155212 134.324 62.295 30.21 0 0 0
2964 5 10 0.131265 135.681 65.085 29.966 0 0 0
2965 5 3 -0.0535874 135.32 64.174 30.52 0 0 0
2966 5 4 -0.0778879 134.255 64.572 31.592 0 0 0
2967 5 1 0.131288 136.158 63.787 31.15 0 0 0
2968 5 7 0.153005 133.905 63.545 32.037 0 0 0
2969 5 12 -0.400408 133.097 65.092 31.042 0 0 0
2970 5 9 0.155816 132.838 65.753 31.696 0 0 0
2972 5 3 -0.0477012 134.751 65.58 32.557 0 0 0
2974 5 1 0.130264 135.6 65.245 33.098 0 0 0
2975 5 7 0.156725 133.249 65.012 34.077 0 0 0
2977 5 9 0.152211 132.042 66.814 33.775 0 0 0
2983 5 12 -0.399312 132.236 67.834 35.553 0 0 0
2971 5 10 0.130584 135.144 66.538 32.041 0 0 0
2973 5 4 -0.0757589 133.69 65.961 33.62 0 0 0
2976 5 12 -0.396973 132.641 66.757 33.036 0 0 0
2978 5 10 0.131529 134.469 67.749 34.483 0 0 0
2979 5 3 -0.0512183 134.196 66.729 34.802 0 0 0
2981 5 1 0.138525 135.133 66.361 35.181 0 0 0
2826 5 4 -0.0767976 168.309 69.118 31.065 0 0 0
2828 5 7 0.157612 167.443 69.455 31.743 0 0 0
2830 5 9 0.145051 168.213 67.265 31.276 0 0 0
2832 5 3 -0.0565394 167.681 68.91 29.685 0 0 0
2836 5 12 -0.397788 166.142 67.189 30.643 0 0 0
2837 5 9 0.15464 165.27 67.615 30.478 0 0 0
2843 5 12 -0.410832 163.911 68.003 29.893 0 0 0
2844 5 9 0.138862 163.028 67.702 29.694 0 0 0
2809 5 10 0.149087 172.829 70.134 35.08 0 0 0
2810 5 3 -0.0499191 171.802 70.02 35.474 0 0 0
2811 5 4 -0.0557514 170.772 70.656 34.605 0 0 0
2813 5 2 0.146425 171.779 68.909 35.489 0 0 0
2814 5 7 0.163798 170.847 71.766 34.635 0 0 0
2815 5 12 -0.39179 169.558 70.206 35.206 0 0 0
2816 5 9 0.138922 169.656 69.257 35.273 0 0 0
2817 5 10 0.135729 170.548 69.057 33.283 0 0 0
2818 5 3 -0.0389801 170.751 70.164 33.134 0 0 0
2819 5 4 -0.0783655 169.6 70.904 32.362 0 0 0
2820 5 1 0.132256 171.688 70.236 32.639 0 0 0
2821 5 7 0.15641 168.7 70.949 33.001 0 0 0
2824 5 10 0.128962 170.173 70.051 30.438 0 0 0
2825 5 3 -0.0556271 169.282 70.282 31.028 0 0 0
2827 5 1 0.133076 168.792 71.133 30.416 0 0 0
2829 5 12 -0.406321 168.82 67.887 31.648 0 0 0
2822 5 12 -0.404706 170.043 72.253 32.131 0 0 0
2823 5 9 0.136033 170.342 72.253 31.254 0 0 0
4282 7 12 -0.404614 108.476 92.646 34.804 0 0 0
4283 7 9 0.147272 108.428 92.869 33.857 0 0 0
4265 7 4 -0.0825718 110.536 92.775 29.672 0 0 0
4267 7 7 0.154471 109.877 93.722 29.68 0 0 0
4269 7 9 0.144686 108.935 91.708 29.845 0 0 0
4270 7 10 0.129159 111.827 93.034 31.331 0 0 0
4271 7 3 -0.0492981 110.942 92.479 31.113 0 0 0
4272 7 4 -0.0826925 109.94 92.827 32.224 0 0 0
4273 7 1 0.133586 111.12 91.408 31.085 0 0 0
4274 7 7 0.158309 109.043 92.144 32.168 0 0 0
4275 7 12 -0.400216 109.608 94.231 32.109 0 0 0
4276 7 9 0.141877 110.325 94.583 31.57 0 0 0
4277 7 10 0.129749 111.546 93.03 33.778 0 0 0
4278 7 3 -0.0492157 110.616 92.492 33.645 0 0 0
4279 7 4 -0.0802615 109.87 92.971 34.926 0 0 0
4280 7 1 0.132505 110.784 91.44 33.728 0 0 0
4281 7 7 0.15838 109.941 94.125 34.977 0 0 0
6628 2 11 -0.834 17.855 115.863 32.589 0 0 0
6629 2 6 0.417 18.362 115.079 32.802 0 0 0
6630 2 6 0.417 17.166 115.551 32.002 0 0 0
1629 3 9 0.147134 160.004 17.709 41.391 0 0 0
6651 9 6 0.417 156.146 22.081 41.449 0 0 0
1616 3 10 0.134267 161.802 22.816 41.486 0 0 0
1618 3 4 -0.0776737 162.363 20.683 41.069 0 0 0
1621 3 12 -0.396673 161.653 20.47 39.908 0 0 0
1622 3 9 0.151401 161.028 19.817 40.174 0 0 0
1628 3 12 -0.399143 160.841 18.022 41.087 0 0 0
1611 3 4 -0.0764156 163.614 22.798 40.257 0 0 0
1613 3 7 0.160925 163.019 22.766 39.343 0 0 0
1614 3 12 -0.407959 164.743 22.017 40.128 0 0 0
1615 3 9 0.138418 164.759 21.552 40.96 0 0 0
1617 3 3 -0.0511933 162.714 22.139 41.34 0 0 0
1620 3 7 0.156297 163.307 20.043 41.054 0 0 0
1589 3 3 -0.0455936 167.931 29.808 41.557 0 0 0
1590 3 4 -0.0843109 167.052 28.865 40.804 0 0 0
1592 3 7 0.150199 167.684 28.094 40.261 0 0 0
1593 3 12 -0.403631 166.306 29.623 39.83 0 0 0
1594 3 9 0.147584 165.599 29.097 39.542 0 0 0
1597 3 4 -0.0902458 165.14 27.171 40.941 0 0 0
1600 3 12 -0.401053 164.469 27.792 39.87 0 0 0
1601 3 9 0.151573 164.322 27.007 39.287 0 0 0
1602 3 10 0.130524 166.544 25.511 41.192 0 0 0
1603 3 3 -0.0501238 165.915 25.973 40.392 0 0 0
1604 3 4 -0.085837 165.097 24.819 39.801 0 0 0
1605 3 1 0.131015 166.703 26.252 39.568 0 0 0
1606 3 7 0.152884 165.804 23.959 39.561 0 0 0
1607 3 12 -0.400654 164.363 25.304 38.648 0 0 0
1608 3 9 0.142708 163.878 24.484 38.311 0 0 0
1609 3 10 0.134531 163.139 24.817 40.715 0 0 0
1610 3 3 -0.05183 164.01 24.183 40.681 0 0 0
1586 3 12 -0.401338 167.797 31.816 39.883 0 0 0
1587 3 9 0.150836 167.037 31.234 39.896 0 0 0
1567 3 10 0.133521 172.924 34.038 37.448 0 0 0
1568 3 3 -0.0414408 171.864 34.48 37.588 0 0 0
1569 3 4 -0.0739795 171.419 34.306 39.062 0 0 0
1570 3 1 0.131776 171.26 33.818 37.02 0 0 0
1571 3 7 0.162738 170.405 34.808 39.217 0 0 0
1572 3 12 -0.405744 172.39 34.874 39.962 0 0 0
1573 3 9 0.149242 171.929 34.778 40.79 0 0 0
1574 3 10 0.125528 172.167 32.378 39.584 0 0 0
1575 3 3 -0.0495991 171.196 32.896 39.515 0 0 0
1576 3 4 -0.0861023 170.472 32.812 40.871 0 0 0
1577 3 1 0.142668 170.678 32.292 38.791 0 0 0
1578 3 7 0.155765 169.703 33.61 40.908 0 0 0
1582 3 3 -0.0587362 169.778 31.534 41.338 0 0 0
1583 3 4 -0.0737802 168.699 30.853 40.527 0 0 0
1584 3 1 0.126344 170.622 30.795 41.496 0 0 0
1585 3 7 0.152856 169.129 30.267 39.682 0 0 0
1558 3 12 -0.394124 172.994 38.212 35.915 0 0 0
1559 3 9 0.154888 172.905 37.876 36.831 0 0 0
1561 3 3 -0.0508671 172.201 36.069 35.636 0 0 0
1562 3 4 -0.0808601 171.763 35.883 37.125 0 0 0
1564 3 7 0.154229 170.701 36.378 37.17 0 0 0
1565 3 12 -0.396583 172.507 36.643 38.01 0 0 0
1566 3 9 0.158597 172.552 36.069 38.785 0 0 0
6165 37 15 -0.0429879 175.06 53.024 36.596 0 0 0
6170 37 18 -0.401126 174.723 51.9 36.923 0 0 0
6171 37 17 0.146832 175.567 53.174 35.657 0 0 0
6160 37 17 0.158877 173.873 56.747 37.991 0 0 0
6166 37 17 0.161536 173.676 54.25 37.667 0 0 0
6157 37 15 -0.0512233 175.467 58.001 37.283 0 0 0
6158 37 16 -0.0377537 174.983 56.686 37.835 0 0 0
6159 37 16 -0.0462099 175.286 55.502 36.903 0 0 0
6161 37 17 0.157977 175.484 56.513 38.815 0 0 0
6162 37 16 -0.0287842 174.778 54.184 37.504 0 0 0
6163 37 17 0.177863 176.378 55.434 36.752 0 0 0
6164 37 17 0.175722 174.799 55.673 35.921 0 0 0
6167 37 17 0.160828 175.285 54.004 38.481 0 0 0
6168 37 18 -0.416834 176.031 58.081 36.208 0 0 0
6169 37 17 0.146857 175.314 58.91 37.867 0 0 0
2982 5 7 0.153584 132.643 65.833 36.012 0 0 0
2990 5 12 -0.402203 134.534 64.94 37.891 0 0 0
2991 5 9 0.14787 134.873 64.69 38.751 0 0 0
2997 5 12 -0.400762 135.907 64.971 40.159 0 0 0
2998 5 9 0.145825 136.45 64.604 40.816 0 0 0
2980 5 4 -0.0834002 133.17 66.807 35.947 0 0 0
2984 5 9 0.139348 132.662 68.685 35.727 0 0 0
2985 5 10 0.128969 132.654 67.141 37.964 0 0 0
2986 5 3 -0.0535344 133.579 67.163 37.375 0 0 0
2987 5 4 -0.0798922 134.626 66.384 38.138 0 0 0
2988 5 1 0.127705 133.916 68.242 37.312 0 0 0
2989 5 7 0.151632 135.657 66.656 37.813 0 0 0
2992 5 10 0.131189 133.454 66.337 39.989 0 0 0