LAMMPS data file via write_data, version 15 Sep 2022, timestep = 0

6664 atoms
17 atom types
6620 bonds
16 bond types
12056 angles
26 angle types
18888 dihedrals
28 dihedral types

-0.134997 179.865003 xlo xhi
1.224001 181.224001 ylo yhi
-0.414498 179.585502 zlo zhi

Masses

1 1.00794
2 1.00794
3 12.0107
4 12.0107
5 1.00794
6 1.00794
7 1.00794
8 1.00794
9 1.00794
10 15.999
11 15.9994
12 15.9994
13 28.085501
14 12.0107
15 12.0107
16 1.00794
17 15.9994

Pair Coeffs # lj/cut

1 0.038 2.44997
2 0.038 2.44997
3 0.039 3.87541
4 0.039 3.87541
5 0.038 2.44997
6 0.038 2.44997
7 0.038 2.44997
8 0 0
9 0.038 2.44997
10 0.228 2.85978
11 0.228 2.85978
12 0.228 2.85978
13 0.04 4.05343
14 0.148 3.61705
15 0.039 3.87541
16 0.038 2.44997
17 0.228 2.85978

Bond Coeffs # harmonic

1 340.618 1.105
2 340.618 1.105
3 322.716 1.526
4 340.618 1.105
5 340.618 1.105
6 340.618 1.105
7 384 1.42
8 540.634 0.96
9 540.634 0.96
10 833.72 1.208
11 392.8 1.665
12 283.092 1.52
13 340.618 1.105
14 615.322 1.23
15 322.716 1.526
16 340.618 1.105

Angle Coeffs # harmonic

1 39.5 106.4
2 44.4 110
3 39.5 106.4
4 44.4 110
5 39.5 106.4
6 46.6 110.5
7 44.4 110
8 44.4 110
9 70 109.5
10 46.6 110.5
11 44.4 110
12 58.5 106
13 33.3 113.4
14 39.5 106.4
15 57 109.5
16 57 109.5
17 42.3 113.1
18 31.1 149.8
19 46.6 110.5
20 45 109.5
21 50 120
22 68 120
23 46.6 110.5
24 44.4 110
25 55 120
26 39.5 106.4

Dihedral Coeffs # harmonic

1 0.1580 1 3
2 0.1580 1 3
3 0.1580 1 3
4 0.1580 1 3
5 0.1580 1 3
6 0.1580 1 3
7 0.1580 1 3
8 0.1300 1 3
9 0.1580 1 3
10 0.1580 1 3
11 0.1580 1 3
12 0.1580 1 3
13 1 1 3
14 0.1300 1 3
15 0.1300 1 3
16 0.1580 1 3
17 0.1580 1 3
18 0.1580 1 3
19 0.1580 1 3
20 0.3 1 3
21 0.1580 1 3
22 0.1580 1 3
23 0.1580 1 3
24 0 1 0
25 0 1 0
26 0.1580 1 3
27 0 1 0
28 0 1 0

Atoms # full

6127 35 14 -0.03396550764556294 156.850998 133.181 3.286 0 0 0
6139 35 16 0.1678398243265497 156.792007 132.095001 3.195 0 0 0
6138 35 17 -0.3944671980086656 155.820007 133.822006 3.352 0 0 0
6128 35 15 -0.03112902324668865 158.205002 133.837006 3.338 0 0 0
6129 35 15 -0.04420727153669257 158.119995 135.365005 3.483 0 0 0
6130 35 16 0.1597718323325021 158.759003 133.595993 2.392 0 0 0
6131 35 16 0.1512347771546648 158.763 133.421005 4.207 0 0 0
6132 35 15 -0.03468504618189328 159.520004 135.992996 3.533 0 0 0
6133 35 16 0.1770579490430529 157.580994 135.608002 4.416 0 0 0
6134 35 16 0.1778957941364133 157.556 135.785004 2.624 0 0 0
6135 35 14 -0.04364418937804115 159.445999 137.485992 3.663 0 0 0
6136 35 16 0.1692607557439001 160.072006 135.744003 2.595 0 0 0
6137 35 16 0.1554354654788964 160.076004 135.585007 4.408 0 0 0
6140 35 17 -0.4055320010428881 160.470001 138.143005 3.718 0 0 0
6141 35 16 0.1469758482705574 158.492004 137.985001 3.717 0 0 0
5934 22 15 -0.04239014434530197 171.498993 144.904999 3.117 0 0 0
5937 22 15 -0.03316284237775602 170.177002 145.128006 2.368 0 0 0
5938 22 16 0.1788175208906022 171.350006 144.132996 3.891 0 0 0
5939 22 16 0.1788293092418973 172.272003 144.554001 2.403 0 0 0
5940 22 14 -0.03880444048727227 169.707993 143.869995 1.699 0 0 0
5943 22 17 -0.4108067016067964 173.854004 144.957993 4.58 0 0 0
5945 22 17 -0.3999346613589216 168.669998 143.871994 1.061 0 0 0
5946 22 16 0.1538748685847269 170.276993 142.959 1.784 0 0 0
5932 22 14 -0.04735338169492442 173.272995 146.026001 4.537 0 0 0
5933 22 15 -0.03587672634108519 171.977997 146.201004 3.79 0 0 0
5935 22 16 0.1571236634167445 172.121002 146.985992 3 0 0 0
5936 22 16 0.1571035503483675 171.201004 146.542999 4.511 0 0 0
5941 22 16 0.1585773833855686 170.319 145.916 1.59 0 0 0
5942 22 16 0.1621755427492934 169.395996 145.460999 3.091 0 0 0
5944 22 16 0.151592003149204 173.701996 146.880005 5.063 0 0 0
5692 6 14 -0.04687922748689133 119.343002 36.537998 10.453 0 0 0
5703 6 17 -0.4104243168213638 118.315002 35.941002 10.198 0 0 0
5704 6 16 0.1518604372019826 120.277 35.977001 10.514 0 0 0
5693 6 15 -0.0356355596869814 119.365997 38.023998 10.697 0 0 0
5694 6 15 -0.04239014434530197 117.973 38.665001 10.591 0 0 0
5697 6 15 -0.03318380289685441 118.041 40.176998 10.847 0 0 0
5698 6 16 0.179034291457437 117.306 38.201 11.339 0 0 0
5699 6 16 0.1790506598809857 117.558998 38.48 9.578 0 0 0
5700 6 14 -0.04416439229195801 116.686996 40.813 10.735 0 0 0
5701 6 16 0.1585214070092452 118.721001 40.650002 10.098 0 0 0
5705 6 17 -0.4036705227031414 116.561996 42.012001 10.911 0 0 0
5706 6 16 0.1501123071458446 115.819 40.216999 10.507 0 0 0
5695 6 16 0.1575288867501399 120.041 38.502998 9.939 0 0 0
2943 5 9 0.1339407368072483 119.681 91.903999 11.145 0 0 0
2928 5 8 0.1598173556183429 124.362999 96.342003 9.806 0 0 0
2929 5 9 0.1300365294587287 122.069 96.480003 8.939 0 0 0
2930 5 3 -0.04987947473748122 122.137001 96.613998 10.014 0 0 0
2931 5 4 -0.0792150908576475 122.419998 95.290001 10.775 0 0 0
2932 5 1 0.1286486592653226 121.123001 96.926003 10.204 0 0 0
2934 5 11 -0.397890975377676 123.621002 94.750999 10.265 0 0 0
2935 5 8 0.151640250845247 123.561996 93.833 10.38 0 0 0
2936 5 9 0.1355030496230741 121.294998 93.802002 9.701 0 0 0
2937 5 3 -0.04546293243715221 121.249001 94.292 10.675 0 0 0
2939 5 1 0.1280485073611977 120.310997 94.847 10.676 0 0 0
2941 5 11 -0.4087507151266646 122.285004 92.196999 11.233 0 0 0
2942 5 8 0.1405044450131371 121.958 91.303001 11.379 0 0 0
2909 5 3 -0.04627763196622731 122.585999 103.195 7.582 0 0 0
2910 5 4 -0.08099504552656445 123.311996 101.834 7.95 0 0 0
2911 5 1 0.1353260834906481 121.507004 103.025002 7.983 0 0 0
2912 5 6 0.1502445012237972 123.625999 101.700996 9.017 0 0 0
2913 5 11 -0.3938908826034932 124.446999 101.731003 7.115 0 0 0
2914 5 8 0.1551798629696308 124.594002 100.723999 7.036 0 0 0
2915 5 9 0.1336283271272103 122.396004 100.473999 6.482 0 0 0
2916 5 3 -0.05218683502722093 122.528 100.617996 7.574 0 0 0
2917 5 4 -0.08377900291754919 123.084 99.279999 8.155 0 0 0
2918 5 1 0.1243807368840771 121.513 100.758003 7.949 0 0 0
2919 5 6 0.1556926319645832 122.598 98.364998 7.738 0 0 0
2920 5 11 -0.396462196403168 124.456001 99.176003 7.896 0 0 0
2921 5 8 0.1535644868465136 124.889999 98.556 8.496 0 0 0
2922 5 9 0.1241720940405004 121.872002 99.403999 9.915 0 0 0
2923 5 3 -0.06005168873683009 122.920998 99.151001 9.712 0 0 0
2924 5 4 -0.07937745200748214 123.150002 97.753998 10.277 0 0 0
2925 5 1 0.1313449822253767 123.397003 99.931999 10.391 0 0 0
2926 5 6 0.1508851703928632 123.075996 97.897003 11.336 0 0 0
2927 5 11 -0.3940302493007458 124.468002 97.273003 10.093 0 0 0
2893 5 8 0.1438429176217313 119.876999 105.083 11.017 0 0 0
2895 5 3 -0.05792442393048208 121.947998 105.764999 11.553 0 0 0
2896 5 4 -0.08848977552367876 121.866997 105.400002 10.069 0 0 0
2897 5 1 0.1301314052498646 122.745003 106.476997 11.558 0 0 0
2898 5 6 0.147492412303382 121.623001 106.331001 9.487 0 0 0
2899 5 11 -0.4142959076288599 120.867996 104.377998 9.953 0 0 0
2900 5 8 0.1344070963230916 121.167999 103.661003 10.536 0 0 0
2901 5 9 0.1260564459887858 123.647003 103.970001 10.11 0 0 0
2902 5 3 -0.06346033543331303 123.204002 104.803001 9.539 0 0 0
2903 5 4 -0.08114400974094965 123.227997 104.513 8.052 0 0 0
2904 5 1 0.1329746918064526 123.945 105.592003 9.784 0 0 0
2905 5 6 0.1555419663904133 122.853996 105.406998 7.524 0 0 0
2906 5 11 -0.3933776685892892 124.609001 104.367996 7.802 0 0 0
2907 5 8 0.1576193426665979 124.613998 103.431999 7.933 0 0 0
2908 5 9 0.1379619061401568 122.494003 103.233002 6.43 0 0 0
2838 5 9 0.1305502179829856 129.865997 120.307999 10.822 0 0 0
2839 5 3 -0.05322927481464884 129.576996 121.072998 11.555 0 0 0
2845 5 9 0.1305208672338689 128.080002 118.764 11.259 0 0 0
2848 5 1 0.1317568254547321 126.995003 120.148003 11.246 0 0 0
2835 5 6 0.1567586553999366 131.391006 122.162003 11.196 0 0 0
2841 5 1 0.1334793915046754 128.880997 121.776001 11.01 0 0 0
5929 21 16 0.1518616951943349 79.097 132.296997 10.217 0 0 0
5928 21 17 -0.4104247173509049 77.709 133.707993 10.03 0 0 0
5917 21 14 -0.04687790385310653 78.873001 133.356003 10.079 0 0 0
5918 21 15 -0.03563460406796282 80.010002 134.337006 9.967 0 0 0
5919 21 15 -0.04239014434530197 79.529999 135.787003 9.793 0 0 0
5920 21 16 0.1575320445058631 80.640999 134.057007 9.082 0 0 0
5921 21 16 0.157540583948731 80.624001 134.268005 10.894 0 0 0
5922 21 15 -0.03318486259120479 80.719002 136.751999 9.684 0 0 0
5923 21 16 0.1790381627892905 78.914001 136.067993 10.665 0 0 0
5924 21 16 0.1790506136198526 78.908997 135.860001 8.876 0 0 0
5925 21 14 -0.04416302694783003 80.259003 138.167999 9.502 0 0 0
5926 21 16 0.1585234266465646 81.349998 136.466003 8.808 0 0 0
5927 21 16 0.1585701886453868 81.330002 136.690994 10.614 0 0 0
5930 21 17 -0.4036707485352581 81.078003 139.063995 9.4 0 0 0
5931 21 16 0.1501142549765475 79.208 138.403 9.469 0 0 0
5696 6 16 0.1575376193392803 119.771004 38.205002 11.718 0 0 0
5702 6 16 0.1585680610203991 118.438004 40.360001 11.872 0 0 0
6646 11 10 -0.3914076117461133 89.716003 65.120003 14.096 0 0 0
6645 11 10 -0.3914076117461133 90.987999 65.160004 14.252 0 0 0
5633 2 15 -0.03563500059416835 76.873001 84.556999 13.479 0 0 0
5634 2 15 -0.04239014434530197 76.629997 84.800003 14.977 0 0 0
5635 2 16 0.1575315723442003 76.176003 83.75 13.127 0 0 0
5639 2 16 0.1790506160992678 76.848999 83.871002 15.541 0 0 0
5641 2 16 0.1585226072165349 74.486 84.427002 14.878 0 0 0
5632 2 14 -0.0468777153799923 78.288002 84.137001 13.179 0 0 0
5643 2 17 -0.4104277917891558 79.123001 84.012001 14.054 0 0 0
5644 2 16 0.1518600540404932 78.575996 83.946999 12.144 0 0 0
5636 2 16 0.1575399015723037 76.660004 85.496002 12.919 0 0 0
5637 2 15 -0.03318248459465756 75.178001 85.225998 15.237 0 0 0
5638 2 16 0.1790411081488342 77.308998 85.598 15.325 0 0 0
5640 2 14 -0.04416152467479939 74.929001 85.456001 16.698999 0 0 0
5642 2 16 0.1585717097777401 74.966003 86.171997 14.686 0 0 0
5645 2 17 -0.4036703899011554 73.824997 85.802002 17.08 0 0 0
5646 2 16 0.1501134738544012 75.722 85.324997 17.417 0 0 0
2949 5 8 0.1485875096191427 118.315002 91.083 14.266 0 0 0
2947 5 6 0.1518389637306228 120.460999 91.051003 13.261 0 0 0
2954 5 6 0.1576983175203176 120.502998 91.051003 15.671 0 0 0
2944 5 3 -0.04712386324912321 119.857002 92.609001 11.946 0 0 0
2945 5 4 -0.08346656388929791 119.718002 91.830002 13.291 0 0 0
2946 5 1 0.1252741209174364 119.014 93.296997 11.839 0 0 0
2948 5 11 -0.3990743472724112 118.391998 91.258003 13.319 0 0 0
2950 5 9 0.1311987525741318 119.070999 93.510002 14.621 0 0 0
2951 5 3 -0.05783035142637988 119.857002 92.727997 14.575 0 0 0
2952 5 4 -0.0718040083169626 119.817001 91.914001 15.831 0 0 0
2955 5 11 -0.3884202906716308 118.499001 91.361 15.937 0 0 0
2956 5 8 0.157243648202276 118.339996 91.367996 16.912001 0 0 0
2957 5 9 0.1281684328432386 119.387001 93.635002 17.018 0 0 0
2933 5 6 0.1530421154724452 122.628998 95.494003 11.877 0 0 0
2938 5 4 -0.08369737184183262 121.333 93.163002 11.746 0 0 0
2940 5 6 0.1485763664758906 121.748001 93.589996 12.681 0 0 0
2953 5 1 0.1284436530341216 120.848 93.240997 14.487 0 0 0
2958 5 3 -0.05005538067819104 120.079002 92.807999 17.117001 0 0 0
2960 5 1 0.1342713304268976 121.130997 93.184998 17.089001 0 0 0
4213 7 9 0.1411591961204423 113.378998 102.411003 13.737 0 0 0
4214 7 3 -0.05216492898868141 112.883003 102.787003 14.651 0 0 0
4215 7 4 -0.05882598505364445 112.491997 101.698997 15.59 0 0 0
4218 7 6 0.1629692736665411 111.656998 101.089996 15.177 0 0 0
4219 7 11 -0.3952566784319966 112.073997 102.434998 16.739 0 0 0
4220 7 8 0.1437846249850767 112.796997 103.033997 16.922001 0 0 0
4222 7 3 -0.04156663159551643 113.648003 100.774002 16.049999 0 0 0
4223 7 4 -0.08010705328182993 113.081001 99.704002 17.051001 0 0 0
4226 7 11 -0.4082191637522338 112.336998 98.748001 16.275 0 0 0
4227 7 8 0.1375330071617168 112.915001 98.031998 16.17 0 0 0
4221 7 9 0.135109402896111 114.338997 101.525002 16.545 0 0 0
4224 7 1 0.1260078231127947 114.197998 100.335999 15.253 0 0 0
4228 7 9 0.1316179143072513 114.971001 98.619003 17.156 0 0 0
4216 7 1 0.1550015477846273 112.061996 103.379997 14.268 0 0 0
4217 7 2 0.1364726831465625 113.714996 103.433998 15.005 0 0 0
2887 5 9 0.132745939541876 119.674004 106.709 13.962 0 0 0
2892 5 11 -0.4007376743918463 119.658997 105.369003 11.941 0 0 0
2880 5 9 0.1277488053546877 121.821999 108.833 12.819 0 0 0
2881 5 3 -0.04923278653328778 121.440002 108.848999 13.912 0 0 0
2882 5 4 -0.07480951796535656 121.559998 107.390999 14.411 0 0 0
2883 5 1 0.1319424358133676 120.375 109.124001 13.725 0 0 0
2884 5 6 0.1576573262341648 121.259003 107.362 15.496 0 0 0
2885 5 11 -0.4163434725700503 122.893997 106.963997 14.178 0 0 0
2886 5 8 0.13208866218748 122.810997 106.450996 13.384 0 0 0
2888 5 3 -0.05310325687001816 120.696999 106.360001 13.706 0 0 0
2889 5 4 -0.09292235889938677 120.654999 106.322998 12.183 0 0 0
2890 5 1 0.130789474115206 120.780998 105.353996 14.125 0 0 0
2891 5 6 0.148108363010537 120.393997 107.362 11.832 0 0 0
2894 5 9 0.1255657315161839 122.319 104.966003 12.2 0 0 0
2859 5 9 0.1317155977287474 125.824997 114.894997 13.293 0 0 0
2861 5 4 -0.0785501610083093 123.994003 114.795998 14.489 0 0 0
2863 5 6 0.1567916953686603 124.564003 114.524002 15.454 0 0 0
2865 5 8 0.1467815695386553 122.407997 115.082001 15.553 0 0 0
2866 5 9 0.1316004530764655 124.169998 113.064003 13.284 0 0 0
2867 5 3 -0.04492979676079734 123.424004 113.505997 13.906 0 0 0
2868 5 4 -0.07830984129707047 122.987 112.410004 14.888 0 0 0
2869 5 1 0.1361371764707921 122.571999 113.869003 13.339 0 0 0
2870 5 6 0.1611038150840275 122.073997 112.741997 15.462 0 0 0
2871 5 11 -0.3967811236128303 124.115997 112.084999 15.733 0 0 0
2872 5 8 0.1439393631088792 124.867996 112.431999 15.241 0 0 0
2873 5 9 0.1325160236770093 123.267998 110.774002 13.379 0 0 0
2874 5 3 -0.04635880043225998 122.491997 111.133003 14.043 0 0 0
2875 5 4 -0.07911393071175876 122.210999 109.818001 14.828 0 0 0
2876 5 1 0.1340938594606911 121.616997 111.386002 13.485 0 0 0
2877 5 6 0.1589514846499248 123.222 109.389999 15.195 0 0 0
2878 5 11 -0.4056499537321574 121.441002 110.127998 16 0 0 0
2879 5 8 0.1482886979550728 121.922997 110.953003 16.191999 0 0 0
2850 5 11 -0.4004015425995834 125.575996 119.842003 13.252 0 0 0
2851 5 8 0.1475994021788606 125.799004 120.353996 14.022 0 0 0
2854 5 4 -0.07139406136073345 125.463997 116.903 13.814 0 0 0
2855 5 1 0.1340104816535259 125.601997 117.518997 11.772 0 0 0
2856 5 6 0.1633554146635806 124.622002 117.603996 14.124 0 0 0
2860 5 3 -0.05393494991001169 124.924004 115.543999 13.485 0 0 0
2862 5 1 0.130473983669405 124.403 115.567001 12.52 0 0 0
2864 5 11 -0.40402977157475 122.870003 115.647003 14.867 0 0 0
2836 5 11 -0.3956647913209004 131.466995 120.947998 12.944 0 0 0
2837 5 8 0.1557282877491527 130.716003 120.428001 13.312 0 0 0
2840 5 4 -0.08676838576503432 128.729996 120.362999 12.63 0 0 0
2842 5 6 0.1504368561067899 128.126999 121.190002 13.217 0 0 0
2843 5 11 -0.4090796268629628 129.505997 119.507004 13.476 0 0 0
2844 5 8 0.1398712992863734 129.184006 118.612999 13.39 0 0 0
2846 5 3 -0.04943297310566119 127.646004 119.544998 11.918 0 0 0
2847 5 4 -0.07640084993562857 126.662003 118.918999 13.025 0 0 0
2849 5 6 0.1621649793202143 127.167999 118.797997 14.034 0 0 0
2852 5 9 0.1361620877154703 127.261002 116.919998 12.4 0 0 0
2853 5 3 -0.04663039470236413 126.292999 117.488998 12.634 0 0 0
2857 5 11 -0.3957853032227517 126.308998 116.796997 15.003 0 0 0
2858 5 8 0.1427093259458862 126.834 115.988998 14.742 0 0 0
2819 5 4 -0.0744194241315872 131.75 125.652 15.495 0 0 0
2821 5 6 0.1584997143106231 131.748001 124.848 16.252001 0 0 0
2822 5 11 -0.4017068716950633 130.947006 126.734001 15.998 0 0 0
2823 5 8 0.1379346550603497 130.505997 127.064003 15.253 0 0 0
2824 5 9 0.1310729532943055 131.281998 125.873001 13.376 0 0 0
2825 5 3 -0.05197932236016756 131.136002 125.176003 14.205 0 0 0
2826 5 4 -0.07353811205294875 131.468994 123.748001 13.81 0 0 0
2827 5 1 0.1350825548181404 129.994003 125.237 14.382 0 0 0
2828 5 6 0.1593801019044351 131.324005 123.119003 14.762 0 0 0
2831 5 9 0.1336695326432321 130.272003 123.985001 12.018 0 0 0
2832 5 3 -0.05333417657732087 130.432007 123.220001 12.817 0 0 0
2833 5 4 -0.08425646196010367 130.748001 121.867996 12.082 0 0 0
2834 5 1 0.130419798170529 129.384995 123.171997 13.257 0 0 0
2810 5 3 -0.04398313014443456 135.274994 126.834999 16.715 0 0 0
2811 5 4 -0.05158139030632924 133.867996 126.345001 16.719999 0 0 0
2813 5 2 0.1462682736246413 135.970001 126.252998 16.073 0 0 0
2814 5 6 0.1664938175122094 133.225006 126.969002 17.379999 0 0 0
2815 5 11 -0.3885384237562204 134.016006 125.025002 17.240999 0 0 0
2816 5 8 0.1410054288665154 134.695999 124.624001 16.702 0 0 0
2817 5 9 0.1380240119135503 133.914001 125.455002 14.833 0 0 0
2818 5 3 -0.03476359360844827 133.212006 126.200996 15.321 0 0 0
2820 5 1 0.1347650424431904 133.25 127.084 14.731 0 0 0
2829 5 11 -0.4038626583198874 132.837997 123.515999 13.379 0 0 0
2830 5 8 0.1465326838284059 132.723999 122.710999 12.896 0 0 0
2809 5 9 0.1530288075968249 135.391006 127.806999 16.201 0 0 0
6652 14 10 -0.3914076117461133 77.261002 150.526993 14.814 0 0 0
6651 14 10 -0.3914076117461133 76.450996 151.324005 14.221 0 0 0
5663 4 15 -0.03563593334409665 71.379997 52.306999 19.698 0 0 0
5664 4 15 -0.04239014434530197 69.865997 52.428001 19.93 0 0 0
5665 4 16 0.1575284244340545 71.594002 51.310001 19.229 0 0 0
5666 4 16 0.1575389867080011 71.707001 53.117001 19.006001 0 0 0
5667 4 15 -0.03318280220272152 69.094002 52.305 18.608999 0 0 0
5668 4 16 0.179040111170809 69.650002 53.41 20.386 0 0 0
5669 4 16 0.1790521392110686 69.536003 51.630001 20.627001 0 0 0
5670 4 14 -0.04416254206520243 67.613998 52.411999 18.827999 0 0 0
5671 4 16 0.1585214456135807 69.316002 51.317001 18.139999 0 0 0
5672 4 16 0.1585714891062508 69.412003 53.120998 17.919001 0 0 0
5673 4 17 -0.4104307795164518 71.643997 52.591999 22.052 0 0 0
5675 4 17 -0.4036687621867309 66.851997 52.335999 17.879999 0 0 0
5676 4 16 0.1501123202782816 67.216003 52.562 19.818001 0 0 0
5662 4 14 -0.04688006621751839 72.176003 52.423 20.971001 0 0 0
5674 4 16 0.1518603908409303 73.264999 52.362999 20.923 0 0 0
2961 5 6 0.158749630904285 120.507004 91.188004 18.493 0 0 0
2959 5 4 -0.08176649861310642 119.835999 92.021004 18.413 0 0 0
2962 5 11 -0.3937632169175604 118.485001 91.580002 18.475 0 0 0
2963 5 8 0.1566658135146761 118.386002 91.330002 19.417999 0 0 0
2964 5 9 0.1288085116079838 119.186996 93.783997 19.59 0 0 0
2969 5 11 -0.3975450320861761 118.764999 91.480003 21.120001 0 0 0
2970 5 8 0.1584691683911558 118.665001 91.537003 22.079 0 0 0
2971 5 9 0.1272452450592771 119.392998 93.885002 22.169001 0 0 0
2965 5 3 -0.05326641356963585 119.961998 92.968002 19.566999 0 0 0
2966 5 4 -0.07999379004257906 119.948997 92.164001 20.908001 0 0 0
2967 5 1 0.1295776910471915 120.973999 93.439003 19.582001 0 0 0
2968 5 6 0.1503620432238127 120.728996 91.307999 20.732 0 0 0
2972 5 3 -0.04637081675176929 120.157997 93.019997 22.099001 0 0 0
2973 5 4 -0.07946948803250636 120.152 92.211998 23.422001 0 0 0
2974 5 1 0.1282385609580624 121.085999 93.533997 22.075001 0 0 0
2975 5 6 0.1594112857452635 120.851997 91.316002 23.326 0 0 0
4225 7 6 0.1595010859383456 112.378998 100.191002 17.75 0 0 0
4231 7 1 0.1310536559439554 113.657997 97.966003 18.120001 0 0 0
4232 7 6 0.1591988134031777 113.738998 99.999001 19.624001 0 0 0
4229 7 3 -0.06427126080436041 114.155998 98.960999 17.799999 0 0 0
4230 7 4 -0.07594179647414534 114.671997 99.644997 19.052999 0 0 0
4233 7 11 -0.402744820744907 115.483002 100.833 18.834 0 0 0
4234 7 8 0.1467998244503553 115.938004 100.875999 19.662001 0 0 0
4235 7 9 0.125818188160245 116.040001 97.992996 19.368999 0 0 0
4236 7 3 -0.06446910429499958 115.344002 98.624001 19.974001 0 0 0
4237 7 4 -0.08618851688107909 116.179001 99.172997 21.186001 0 0 0
4238 7 1 0.1272350872515962 114.625 97.825996 20.344 0 0 0
4239 7 6 0.1465437995714296 117.202003 99.401001 20.754999 0 0 0
4240 7 11 -0.400519176524759 115.585999 100.375999 21.74 0 0 0
4241 7 8 0.1488619561065676 115.033997 99.987 22.457001 0 0 0
4242 7 9 0.1247805977306437 117.181 98.575996 23.040001 0 0 0
4243 7 3 -0.05275898808415624 116.374001 98.253998 22.368 0 0 0
4244 7 4 -0.09337020406820623 115.123001 98.041 23.245001 0 0 0
4245 7 1 0.1337522597013402 116.675003 97.236 21.987 0 0 0
4246 7 6 0.1537821492475853 114.363998 97.376999 22.634001 0 0 0
2812 5 1 0.15411851507062 135.701996 127.012001 17.694 0 0 0
2977 5 8 0.1519920134351166 119.005997 91.216003 24.5 0 0 0
2982 5 6 0.1556561481858885 121.333 91.049004 25.443001 0 0 0
4254 7 11 -0.3997674754004353 113.642998 95.570999 24.766001 0 0 0
4255 7 8 0.1504387832806332 112.953003 95.806999 24.153999 0 0 0
4258 7 4 -0.0683745533873949 113.161003 96.649002 27.518 0 0 0
4260 7 6 0.1686231362058213 112.601997 95.737 27.125999 0 0 0
4264 7 3 -0.05395886809545314 113.362999 96.546997 28.999001 0 0 0
4268 7 11 -0.4050835371043606 111.448997 95.056 29.504 0 0 0
2976 5 11 -0.3994036789740775 118.820999 91.763 23.742001 0 0 0
2983 5 11 -0.4041635120936021 119.606003 91.75 26.396 0 0 0
2984 5 8 0.1331343661372162 119.371002 92.530998 26.915001 0 0 0
4250 7 3 -0.04715658239688958 115.519997 97.157997 24.434 0 0 0
4251 7 4 -0.07470553866550123 114.197998 96.801003 25.275999 0 0 0
4252 7 1 0.1303246676628351 115.959999 96.178001 24.139 0 0 0
4257 7 3 -0.04946708131426986 114.510002 96.860001 26.77 0 0 0
4259 7 1 0.1330512000194908 115.138 95.990997 27.041 0 0 0
4266 7 1 0.1284056574234848 114.138 95.804001 29.225 0 0 0
2978 5 9 0.1263357768836725 119.93 93.712997 24.92 0 0 0
2979 5 3 -0.05439960853221804 120.656998 92.936996 24.632 0 0 0
2980 5 4 -0.0863652684132788 120.908997 91.999001 25.826 0 0 0
2981 5 1 0.1400919689992308 121.538002 93.523003 24.441 0 0 0
2985 5 9 0.1245404316143219 121.786003 91.556 27.691999 0 0 0
2986 5 3 -0.05929308691727886 121.789001 92.411003 27.004999 0 0 0
2987 5 4 -0.08807736356377427 123.224998 92.852997 26.83 0 0 0
2988 5 1 0.1221403218771152 121.218002 93.251999 27.504 0 0 0
2989 5 6 0.1494730099605271 123.289001 93.903 26.462 0 0 0
2990 5 11 -0.4101268962293686 123.929001 92.064003 25.811001 0 0 0
2991 5 8 0.1482127350003523 124.789001 92.156998 26.219 0 0 0
2992 5 9 0.1299040005113611 123.949997 91.667999 28.524 0 0 0
2993 5 3 -0.05932248510262078 123.920998 92.775002 28.33 0 0 0
2994 5 4 -0.09555585623748225 125.242996 93.470001 28.341 0 0 0
2995 5 1 0.1314317103958443 123.142998 93.203003 28.927999 0 0 0
2996 5 6 0.1404980263269741 125.089996 94.595001 28.311001 0 0 0
2997 5 11 -0.40449992983011 125.974998 93.069 27.165001 0 0 0
2998 5 8 0.1452674608675309 126.864998 93.294998 27.294001 0 0 0
2999 5 9 0.1418463068652327 126.277 92.019997 29.306 0 0 0
3000 5 3 -0.04502726769426102 126.110001 93.072998 29.538 0 0 0
3004 5 11 -0.3972369977034761 128.188995 93.606003 28.408001 0 0 0
3005 5 8 0.1542701268601956 128.75 94.418999 28.41 0 0 0
3009 5 1 0.1306147346213167 126.768997 95.885002 28.906 0 0 0
3011 5 11 -0.3963556821663195 129.453003 96.027 28.893 0 0 0
3012 5 8 0.1450693086259557 130.251999 96.593002 29.139 0 0 0
4253 7 6 0.1638053277030748 113.378998 97.577003 25.143999 0 0 0
4261 7 11 -0.4002190039850165 112.266998 97.773003 27.243 0 0 0
4262 7 8 0.1366568239504174 112.690002 98.452003 27.839001 0 0 0
4263 7 9 0.1272584584486592 113.822998 97.526001 29.313999 0 0 0
4247 7 11 -0.4168009017771242 114.559998 99.268997 23.722 0 0 0
4248 7 8 0.1346896056601655 114.577003 99.267998 24.676001 0 0 0
4249 7 9 0.1283208341425946 116.299004 97.635002 25.065001 0 0 0
4256 7 9 0.1363927554693391 115.028 97.859001 26.990999 0 0 0
6636 6 10 -0.3914076117461133 83.602997 107.292999 28.426001 0 0 0
6635 6 10 -0.3914076117461133 84.728996 107.300003 29.040001 0 0 0
6097 33 14 -0.0485454673681015 115.943001 106.5 27.884001 0 0 0
6098 33 15 -0.03133713148713912 114.978996 107.654999 27.955 0 0 0
6099 33 15 -0.04044114343134908 115.675003 108.992996 28.252001 0 0 0
6100 33 16 0.158625851393435 114.231003 107.449997 28.766001 0 0 0
6101 33 16 0.1615743534905233 114.450996 107.730003 26.976999 0 0 0
6103 33 16 0.1785439374342249 116.407997 109.200996 27.452999 0 0 0
6104 33 16 0.1836961450709475 116.211998 108.920998 29.219999 0 0 0
6108 33 17 -0.4127751511870223 117.138 106.644997 28.052 0 0 0
6109 33 16 0.1516113927847383 115.558998 105.501999 27.667 0 0 0
6102 33 15 -0.02829034450274592 114.658997 110.140999 28.313999 0 0 0
6105 33 14 -0.04422211480455729 115.328003 111.449997 28.614 0 0 0
6106 33 16 0.1595997448955743 113.908997 109.931 29.115 0 0 0
6107 33 16 0.1619782815594068 114.136002 110.224998 27.333 0 0 0
6110 33 17 -0.4039628538276201 114.664001 112.467003 28.698 0 0 0
6111 33 16 0.1498200244761358 116.396004 111.5 28.75 0 0 0
6657 17 10 -0.3914076117461133 117.106003 126.156998 25.854 0 0 0
6658 17 10 -0.3914076117461133 116.067001 126.802002 25.471001 0 0 0
6633 5 10 -0.394378708544071 2.006 29.929001 32.702999 0 0 0
6634 5 10 -0.3929482583013301 0.803 30.132999 32.312 0 0 0
4265 7 4 -0.08166694178019024 112.158997 96.252998 29.945 0 0 0
4267 7 6 0.1596220493160763 111.404999 97.125999 29.936001 0 0 0
4269 7 8 0.1472270333593136 110.678001 95.028999 30.142 0 0 0
4270 7 9 0.1319363667591739 113.415001 96.678001 31.596001 0 0 0
4271 7 3 -0.05277612035615442 112.593002 96.028999 31.391001 0 0 0
4272 7 4 -0.08071069545128212 111.559998 96.292 32.495998 0 0 0
4273 7 1 0.1302533799109443 112.882004 94.982002 31.382999 0 0 0
4274 7 6 0.1617156560246254 110.739998 95.518997 32.455002 0 0 0
4277 7 9 0.1294493164728827 113.136002 96.693001 34.042999 0 0 0
4278 7 3 -0.04563235911553221 112.266998 96.057999 33.923 0 0 0
4279 7 4 -0.07643947615159397 111.474998 96.481003 35.195 0 0 0
4280 7 1 0.1332795313203014 112.544998 95.030998 34.025002 0 0 0
4282 7 11 -0.4017158590650154 110.123001 96.010002 35.083 0 0 0
4283 7 8 0.1491979086862024 110.052002 96.208 34.131001 0 0 0
3002 5 1 0.1292693257329514 125.455002 93.267998 30.429001 0 0 0
3001 5 4 -0.08258177635308778 127.449997 93.822998 29.587 0 0 0
3003 5 6 0.1554029365850222 128.046005 93.452003 30.398001 0 0 0
3006 5 9 0.1340006435870137 126.639999 95.549004 30.662001 0 0 0
3007 5 3 -0.04454185914851166 127.306 95.331001 29.792 0 0 0
3008 5 4 -0.07842282737439088 128.589005 96.129997 30.054001 0 0 0
3010 5 6 0.1601026258505053 128.302994 97.199997 30.313999 0 0 0
3013 5 9 0.1373318872422924 130.057999 94.811996 30.934999 0 0 0
3014 5 3 -0.04656968819482632 129.488998 95.682999 31.215 0 0 0
3015 5 4 -0.07188973166764318 130.416 96.753998 31.716999 0 0 0
3016 5 1 0.1332858271266707 128.869995 95.289001 32.029999 0 0 0
3017 5 6 0.1632638492641313 131.244003 96.975998 31.042 0 0 0
3020 5 9 0.1356935086092573 131.649002 95.327003 32.828999 0 0 0
3021 5 3 -0.0475503031277934 131.093002 96.304001 33.042 0 0 0
3023 5 1 0.1297535199138859 130.276993 96.067001 33.720001 0 0 0
3027 5 9 0.1318092018873959 133.554993 96.393997 34.666 0 0 0
3028 5 3 -0.05108837052320964 132.634003 96.837997 34.962002 0 0 0
3030 5 1 0.1306009277227071 132.039993 96.002998 35.431 0 0 0
4275 7 11 -0.3946892454525268 111.083 97.651001 32.355 0 0 0
4276 7 8 0.1440376962744205 111.759003 98.066002 31.808001 0 0 0
4281 7 6 0.1592586747702222 111.425003 97.637001 35.223999 0 0 0
3018 5 11 -0.404527167443371 129.692001 97.894997 31.99 0 0 0
3019 5 8 0.1415677799214017 129.565994 97.829002 32.932999 0 0 0
3024 5 6 0.1582631829263221 131.315002 98.267998 34 0 0 0
3022 5 4 -0.07480922006665336 131.953003 97.370003 33.705002 0 0 0
3025 5 11 -0.3948624876028362 133.018997 97.802002 32.946999 0 0 0
3026 5 8 0.152310550629299 133.701996 97.878998 33.591 0 0 0
3032 5 11 -0.3974074413106432 134.154007 98.674004 35.395 0 0 0
6627 2 10 -0.3914076117461133 17.135 115.861 32.122002 0 0 0
6628 2 10 -0.3914076117461133 18.146999 115.460999 32.799 0 0 0
6641 9 10 -0.3914076117461133 156.404999 21.968 41.491001 0 0 0
6166 37 16 0.1617832194005415 173.675995 54.25 37.667 0 0 0
6162 37 15 -0.02940928157144529 174.778 54.183998 37.504002 0 0 0
6165 37 14 -0.04033961086722282 175.059998 53.023998 36.596001 0 0 0
6167 37 16 0.1604531252044273 175.285004 54.004002 38.480999 0 0 0
6170 37 17 -0.398909168172177 174.723007 51.900002 36.923 0 0 0
6171 37 16 0.1530701047991984 175.567001 53.174 35.657001 0 0 0
6157 37 14 -0.04318367015311975 175.466995 58.000999 37.283001 0 0 0
6158 37 15 -0.03037364630579242 174.983002 56.686001 37.834999 0 0 0
6159 37 15 -0.03803371855074567 175.285995 55.501999 36.903 0 0 0
6160 37 16 0.1588549325884209 173.873001 56.747002 37.991001 0 0 0
6161 37 16 0.1564036581573301 175.483994 56.513 38.814999 0 0 0
6163 37 16 0.1813985677747714 176.378006 55.433998 36.751999 0 0 0
6164 37 16 0.1819538119980763 174.798996 55.673 35.921001 0 0 0
6168 37 17 -0.4099540550360841 176.031006 58.081001 36.208 0 0 0
6169 37 16 0.1572667918710411 175.313995 58.91 37.867001 0 0 0
3071 5 4 -0.1017385251298689 126.939003 90.372002 41.095001 0 0 0
3072 5 1 0.1295980393703377 128.893005 91.003998 41.450001 0 0 0
3073 5 6 0.1455643803073753 125.887001 90.710999 40.943001 0 0 0
3074 5 11 -0.4163047703002188 127.294998 89.411003 40.137001 0 0 0
3075 5 8 0.1412554013329989 127.25 88.543999 40.639999 0 0 0
4284 7 9 0.1297711618565889 113.318001 95.916 36.395 0 0 0
4285 7 3 -0.04814017631273509 112.161003 95.873001 36.431999 0 0 0
4286 7 4 -0.07335186393895399 111.762001 96.625999 37.721001 0 0 0
4287 7 1 0.1340492044725988 112.028 94.772003 36.551998 0 0 0
4288 7 6 0.1605465408781934 110.637001 96.667999 37.772999 0 0 0
4291 7 9 0.1347445272379446 111.674004 95.049004 39.036999 0 0 0
4292 7 3 -0.05132288783229927 112.222 96.015999 39.033001 0 0 0
4293 7 4 -0.09111221489416216 113.668999 95.568001 39.192001 0 0 0
4294 7 1 0.1342934532067659 111.875 96.556999 39.917 0 0 0
4296 7 11 -0.4033472966305469 113.646004 94.941002 40.444 0 0 0
4295 7 6 0.1481559679810142 113.900002 94.875 38.333 0 0 0
4297 7 8 0.1522978216748549 114.601997 94.977997 40.703999 0 0 0
4299 7 3 -0.05629767947667169 114.660004 96.745003 39.319 0 0 0
4300 7 4 -0.08583142385976988 116.068001 96.387001 39.794998 0 0 0