LAMMPS data file. CGCMM style. atom_style full generated by VMD/TopoTools v1.8 on Tue Apr 25 19:49:31 +0530 2023
 6684 atoms
 6640 bonds
 12076 angles
 18888 dihedrals
 0 impropers
 18 atom types
 16 bond types
 27 angle types
 28 dihedral types
 0 improper types
 0.608005 180.608005  xlo xhi
 -0.152998 179.847002  ylo yhi
 -0.414498 179.585502  zlo zhi

# Pair Coeffs
#
# 1  1H1C
# 2  1H2C
# 3  C1
# 4  C2*
# 5  H
# 6  H1
# 7  HC2
# 8  HH
# 9  HO1
# 10  HT
# 11  O
# 12  O1
# 13  O2
# 14  Si1
# 15  c1
# 16  c2
# 17  h
# 18  o

# Bond Coeffs
#
# 1  1H1C-C1
# 2  1H2C-C1
# 3  C1-C2*
# 4  C1-HT
# 5  C2*-HC2
# 6  C2*-HH
# 7  C2*-O1
# 8  H-O2
# 9  H1-O
# 10  HO1-O1
# 11  O2-Si1
# 12  c1-c2
# 13  c1-h
# 14  c1-o
# 15  c2-c2
# 16  c2-h

# Angle Coeffs
#
# 1  1H1C-C1-1H2C
# 2  1H1C-C1-C2*
# 3  1H1C-C1-HT
# 4  1H2C-C1-C2*
# 5  1H2C-C1-HT
# 6  C1-C2*-C1
# 7  C1-C2*-HC2
# 8  C1-C2*-HH
# 9  C1-C2*-O1
# 10  C2*-C1-C2*
# 11  C2*-C1-HT
# 12  C2*-O1-HO1
# 13  H-O2-Si1
# 14  H1-O-H1
# 15  HC2-C2*-HH
# 16  HC2-C2*-O1
# 17  HH-C2*-O1
# 18  O2-Si1-O2
# 19  Si1-O2-Si1
# 20  c1-c2-c2
# 21  c1-c2-h
# 22  c2-c1-h
# 23  c2-c1-o
# 24  c2-c2-c2
# 25  c2-c2-h
# 26  h-c1-o
# 27  h-c2-h

# Dihedral Coeffs
#
# 1  1H1C-C1-C2*-C1
# 2  1H1C-C1-C2*-HC2
# 3  1H1C-C1-C2*-HH
# 4  1H1C-C1-C2*-O1
# 5  1H2C-C1-C2*-C1
# 6  1H2C-C1-C2*-HC2
# 7  1H2C-C1-C2*-O1
# 8  C1-C2*-O1-HO1
# 9  C2*-C1-C2*-C1
# 10  C2*-C1-C2*-HC2
# 11  C2*-C1-C2*-HH
# 12  C2*-C1-C2*-O1
# 13  H-O2-Si1-O2
# 14  HC2-C2*-O1-HO1
# 15  HH-C2*-O1-HO1
# 16  HT-C1-C2*-C1
# 17  HT-C1-C2*-HC2
# 18  HT-C1-C2*-HH
# 19  HT-C1-C2*-O1
# 20  Si1-O2-Si1-O2
# 21  c1-c2-c2-c2
# 22  c1-c2-c2-h
# 23  c2-c2-c2-h
# 24  h-c1-c2-c2
# 25  h-c1-c2-h
# 26  h-c2-c2-h
# 27  o-c1-c2-c2
# 28  o-c1-c2-h

 Masses

 1 1.007940 # 1H1C
 2 1.007940 # 1H2C
 3 12.010700 # C1
 4 12.010700 # C2*
 5 1.007940 # H
 6 1.008000 # H1
 7 1.007940 # HC2
 8 1.007940 # HH
 9 1.007940 # HO1
 10 1.007940 # HT
 11 15.999000 # O
 12 15.999400 # O1
 13 15.999400 # O2
 14 28.085501 # Si1
 15 12.010700 # c1
 16 12.010700 # c2
 17 1.007940 # h
 18 15.999400 # o

 Atoms # full

1 1 10 0.000000 139.656006 120.044998 143.582993 # HT VIN
2 1 3 0.000000 138.576996 119.806000 143.600006 # C1 VIN
3 1 4 0.000000 138.270004 118.556999 144.352997 # C2* VIN
4 1 1 0.000000 138.302994 119.788002 142.552994 # 1H1C VIN
5 1 2 0.000000 138.233994 120.742996 144.089996 # 1H2C VIN
6 1 7 0.000000 138.639008 117.657997 143.811005 # HC2 VIN
7 1 12 0.000000 136.843994 118.582001 144.399994 # O1 VIN
8 1 9 0.000000 136.626007 119.449997 144.737000 # HO1 VIN
9 1 10 0.000000 138.209000 119.425003 146.250000 # HT VIN
10 1 3 0.000000 138.764008 118.531998 145.822998 # C1 VIN
11 1 4 0.000000 138.341995 117.169998 146.483002 # C2* VIN
12 1 1 0.000000 139.800995 118.737000 145.936996 # 1H1C VIN
13 1 7 0.000000 137.307007 116.924004 146.186005 # HC2 VIN
14 1 12 0.000000 139.205994 116.153000 145.947998 # O1 VIN
15 1 9 0.000000 139.848999 116.026001 146.602997 # HO1 VIN
16 1 10 0.000000 139.438004 117.579002 148.324005 # HT VIN
17 1 3 0.000000 138.485992 117.165001 147.981995 # C1 VIN
18 1 4 0.000000 137.309998 117.735001 148.753998 # C2* VIN
19 1 1 0.000000 138.585999 116.045998 148.264008 # 1H1C VIN
20 1 7 0.000000 136.369995 117.267998 148.283005 # HC2 VIN
21 1 12 0.000000 137.132996 119.176003 148.660004 # O1 VIN
22 1 9 0.000000 136.604996 119.327003 149.429001 # HO1 VIN
23 1 10 0.000000 138.363007 117.346001 150.608002 # HT VIN
24 1 3 0.000000 137.330002 117.227997 150.197998 # C1 VIN
25 1 4 0.000000 136.360992 117.915001 151.225998 # C2* VIN
26 1 1 0.000000 137.216003 116.099998 150.270004 # 1H1C VIN
27 1 7 0.000000 136.917999 118.835999 151.580994 # HC2 VIN
28 1 12 0.000000 135.104996 118.293999 150.602997 # O1 VIN
29 1 9 0.000000 134.559998 117.500000 150.809006 # HO1 VIN
30 1 10 0.000000 135.531998 117.736000 153.246002 # HT VIN
31 1 3 0.000000 135.966003 117.119003 152.447006 # C1 VIN
32 1 4 0.000000 134.973999 115.967003 152.184998 # C2* VIN
33 1 1 0.000000 136.893997 116.650002 152.886002 # 1H1C VIN
34 1 7 0.000000 135.552994 115.117996 151.606003 # HC2 VIN
35 1 12 0.000000 133.776993 116.400002 151.528000 # O1 VIN
36 1 9 0.000000 133.029999 116.209000 152.087997 # HO1 VIN
37 1 10 0.000000 134.130997 116.046997 154.220993 # HT VIN
38 1 3 0.000000 134.621994 115.327003 153.533005 # C1 VIN
39 1 4 0.000000 133.709000 114.030998 153.266006 # C2* VIN
40 1 1 0.000000 135.505997 114.958000 154.100006 # 1H1C VIN
41 1 7 0.000000 133.143997 114.096001 152.283005 # HC2 VIN
42 1 12 0.000000 134.567993 112.878998 153.134995 # O1 VIN
43 1 9 0.000000 134.703003 112.734001 152.205002 # HO1 VIN
44 1 10 0.000000 132.076996 114.980003 154.354004 # HT VIN
45 1 3 0.000000 132.600006 113.959999 154.313995 # C1 VIN
46 1 4 0.000000 131.677002 112.774002 153.908997 # C2* VIN
47 1 1 0.000000 133.041000 113.675003 155.285995 # 1H1C VIN
48 1 7 0.000000 132.276001 111.827003 153.703003 # HC2 VIN
49 1 12 0.000000 131.018997 113.074997 152.636993 # O1 VIN
50 1 9 0.000000 130.335007 113.720001 152.970993 # HO1 VIN
51 1 10 0.000000 130.020004 113.464996 155.007996 # HT VIN
52 1 3 0.000000 130.625000 112.516998 154.945007 # C1 VIN
53 1 4 0.000000 129.636002 111.320999 154.789993 # C2* VIN
54 1 1 0.000000 131.084000 112.428001 155.936005 # 1H1C VIN
55 1 7 0.000000 128.944000 111.473999 153.878998 # HC2 VIN
56 1 12 0.000000 130.371994 110.079002 154.578995 # O1 VIN
57 1 9 0.000000 129.630005 109.424004 154.427002 # HO1 VIN
58 1 10 0.000000 128.522003 112.097000 156.414993 # HT VIN
59 1 3 0.000000 128.751007 111.133003 156.018997 # C1 VIN
60 1 4 0.000000 127.403000 110.422997 155.828003 # C2* VIN
61 1 1 0.000000 129.393997 110.556999 156.677002 # 1H1C VIN
62 1 7 0.000000 127.568001 109.334000 155.582993 # HC2 VIN
63 1 12 0.000000 126.654999 111.138000 154.815994 # O1 VIN
64 1 9 0.000000 127.093002 111.995003 154.783005 # HO1 VIN
65 1 10 0.000000 126.487999 111.410004 157.623001 # HT VIN
66 1 3 0.000000 126.627998 110.407997 157.238007 # C1 VIN
67 1 4 0.000000 125.143997 109.934998 157.237000 # C2* VIN
68 1 1 0.000000 127.169998 109.815002 157.942993 # 1H1C VIN
69 1 7 0.000000 124.507004 110.741997 156.707001 # HC2 VIN
70 1 12 0.000000 125.035004 108.737999 156.451004 # O1 VIN
71 1 9 0.000000 125.661003 109.038002 155.766998 # HO1 VIN
72 1 10 0.000000 125.091003 110.462997 159.445007 # HT VIN
73 1 3 0.000000 124.706001 109.672997 158.690002 # C1 VIN
74 1 4 0.000000 123.166000 109.693001 158.822006 # C2* VIN
75 1 1 0.000000 125.138000 108.755997 159.154999 # 1H1C VIN
76 1 7 0.000000 122.735001 108.984001 158.059998 # HC2 VIN
77 1 12 0.000000 122.735001 111.036003 158.658005 # O1 VIN
78 1 9 0.000000 122.595001 111.319000 159.552994 # HO1 VIN
79 1 10 0.000000 122.914001 108.204002 160.216995 # HT VIN
80 1 3 0.000000 122.596001 109.266998 160.164001 # C1 VIN
81 1 4 0.000000 123.175003 109.844002 161.449005 # C2* VIN
82 1 1 0.000000 121.502998 109.251999 160.194000 # 1H1C VIN
83 1 7 0.000000 124.288002 109.667999 161.421005 # HC2 VIN
84 1 12 0.000000 122.502998 109.105003 162.431000 # O1 VIN
85 1 9 0.000000 122.589996 109.696999 163.220993 # HO1 VIN
86 1 10 0.000000 121.765999 111.458000 161.326004 # HT VIN
87 1 3 0.000000 122.790001 111.320000 161.682007 # C1 VIN
88 1 4 0.000000 123.058998 111.870003 163.082993 # C2* VIN
89 1 1 0.000000 123.356003 111.990997 161.072006 # 1H1C VIN
90 1 7 0.000000 124.164001 111.810997 163.283005 # HC2 VIN
91 1 12 0.000000 122.275002 111.083000 163.990005 # O1 VIN
92 1 9 0.000000 121.358002 111.176003 163.682007 # HO1 VIN
93 1 10 0.000000 121.559998 113.585999 162.923996 # HT VIN
94 1 3 0.000000 122.592003 113.348999 163.231995 # C1 VIN
95 1 4 0.000000 122.920998 113.990997 164.565002 # C2* VIN
96 1 1 0.000000 123.138000 113.865997 162.416000 # 1H1C VIN
97 1 7 0.000000 123.983002 113.792999 164.785995 # HC2 VIN
98 1 12 0.000000 122.749001 115.362000 164.281998 # O1 VIN
99 1 9 0.000000 121.844002 115.385002 164.550995 # HO1 VIN
100 1 10 0.000000 122.476997 114.070000 166.710999 # HT VIN
101 1 3 0.000000 121.973000 113.693001 165.740005 # C1 VIN
102 1 4 0.000000 120.513000 114.310997 165.701996 # C2* VIN
103 1 1 0.000000 121.765999 112.560997 165.908005 # 1H1C VIN
104 1 7 0.000000 119.932999 114.179001 164.751999 # HC2 VIN
105 1 12 0.000000 120.639000 115.691002 165.981003 # O1 VIN
106 1 9 0.000000 119.737999 115.932999 166.395996 # HO1 VIN
107 1 10 0.000000 119.953003 114.168999 167.824997 # HT VIN
108 1 3 0.000000 119.634003 113.838997 166.815994 # C1 VIN
109 1 4 0.000000 118.125999 114.213997 166.658997 # C2* VIN
110 1 1 0.000000 119.712997 112.751999 166.852005 # 1H1C VIN
111 1 7 0.000000 117.509003 114.008003 167.567001 # HC2 VIN
112 1 12 0.000000 117.998001 115.578003 166.371002 # O1 VIN
113 1 9 0.000000 117.149002 115.779999 165.955994 # HO1 VIN
114 1 10 0.000000 117.656998 112.391998 165.639999 # HT VIN
115 1 3 0.000000 117.403000 113.448997 165.492996 # C1 VIN
116 1 4 0.000000 115.880997 113.537003 165.503998 # C2* VIN
117 1 1 0.000000 117.793999 113.552002 164.429001 # 1H1C VIN
118 1 7 0.000000 115.595001 113.032997 164.602997 # HC2 VIN
119 1 12 0.000000 115.384003 114.849998 165.328003 # O1 VIN
120 1 9 0.000000 114.661003 114.941002 165.983994 # HO1 VIN
121 1 10 0.000000 115.364998 113.185997 167.552002 # HT VIN
122 1 3 0.000000 115.050003 112.805000 166.585007 # C1 VIN
123 1 4 0.000000 113.510002 112.858002 166.382996 # C2* VIN
124 1 1 0.000000 115.360001 111.779999 166.703995 # 1H1C VIN
125 1 7 0.000000 113.235001 112.589996 165.309006 # HC2 VIN
126 1 12 0.000000 113.102997 114.199997 166.544998 # O1 VIN
127 1 9 0.000000 112.226997 114.167999 166.845993 # HO1 VIN
128 1 10 0.000000 112.697998 112.375999 168.317001 # HT VIN
129 1 3 0.000000 112.760002 111.904999 167.334000 # C1 VIN
130 1 4 0.000000 111.293999 111.637001 166.876007 # C2* VIN
131 1 1 0.000000 113.359001 111.005997 167.479996 # 1H1C VIN
132 1 7 0.000000 111.266998 111.607002 165.768997 # HC2 VIN
133 1 12 0.000000 110.524002 112.785004 167.313995 # O1 VIN
134 1 9 0.000000 109.683998 112.496002 167.686005 # HO1 VIN
135 1 10 0.000000 110.554001 110.467003 168.537994 # HT VIN
136 1 3 0.000000 110.858002 110.250999 167.522995 # C1 VIN
137 1 4 0.000000 109.625000 109.642998 166.785995 # C2* VIN
138 1 1 0.000000 111.612999 109.473000 167.666000 # 1H1C VIN
139 1 7 0.000000 108.850998 110.391998 166.830994 # HC2 VIN
140 1 12 0.000000 109.224998 108.464996 167.520996 # O1 VIN
141 1 9 0.000000 108.694000 108.027000 166.841995 # HO1 VIN
142 1 10 0.000000 110.686996 108.389999 165.266006 # HT VIN
143 1 3 0.000000 109.915001 109.184998 165.307999 # C1 VIN
144 1 4 0.000000 108.675003 108.705002 164.619995 # C2* VIN
145 1 1 0.000000 110.318001 110.085999 164.779999 # 1H1C VIN
146 1 7 0.000000 107.883003 109.460999 164.830002 # HC2 VIN
147 1 12 0.000000 108.261002 107.501999 165.279999 # O1 VIN
148 1 9 0.000000 107.892998 106.964996 164.537003 # HO1 VIN
149 1 10 0.000000 109.809998 107.705002 163.115997 # HT VIN
150 1 3 0.000000 108.947998 108.359001 163.095001 # C1 VIN
151 1 4 0.000000 107.737000 107.677002 162.442993 # C2* VIN
152 1 1 0.000000 109.196999 109.302002 162.548004 # 1H1C VIN
153 1 7 0.000000 106.878998 108.319000 162.449005 # HC2 VIN
154 1 12 0.000000 107.445999 106.452003 163.106995 # O1 VIN
155 1 9 0.000000 106.851997 106.000999 162.470993 # HO1 VIN
156 1 10 0.000000 108.938004 106.476997 161.016006 # HT VIN
157 1 3 0.000000 108.125000 107.254997 161.059006 # C1 VIN
158 1 4 0.000000 106.858002 106.764000 160.285004 # C2* VIN
159 1 1 0.000000 108.446999 108.137001 160.453003 # 1H1C VIN
160 1 7 0.000000 106.070000 107.612000 160.468994 # HC2 VIN
161 1 12 0.000000 106.268997 105.651001 160.858002 # O1 VIN
162 1 9 0.000000 105.946999 105.169998 160.085007 # HO1 VIN
163 1 10 0.000000 107.976997 105.620003 158.770004 # HT VIN
164 1 3 0.000000 107.139999 106.412003 158.875000 # C1 VIN
165 1 4 0.000000 105.875999 105.934998 158.115005 # C2* VIN
166 1 1 0.000000 107.525002 107.228996 158.317993 # 1H1C VIN
167 1 7 0.000000 105.027000 106.681000 158.279999 # HC2 VIN
168 1 12 0.000000 105.473000 104.625999 158.561996 # O1 VIN
169 1 9 0.000000 104.652000 104.531998 158.085999 # HO1 VIN
170 1 10 0.000000 106.666000 105.015999 156.360992 # HT VIN
171 1 3 0.000000 106.000999 105.853996 156.625000 # C1 VIN
172 1 4 0.000000 104.642998 105.675003 155.921997 # C2* VIN
173 1 1 0.000000 106.523003 106.691002 156.195007 # 1H1C VIN
174 1 7 0.000000 103.889000 106.289001 156.453995 # HC2 VIN
175 1 12 0.000000 104.319000 104.276001 156.070007 # O1 VIN
176 1 9 0.000000 104.847000 103.793999 155.419006 # HO1 VIN
177 1 10 0.000000 103.404999 105.759003 154.216995 # HT VIN
178 1 3 0.000000 104.459000 105.973999 154.434998 # C1 VIN
179 1 4 0.000000 104.786003 107.320000 153.830002 # C2* VIN
180 1 1 0.000000 105.082001 105.188004 153.908997 # 1H1C VIN
181 1 7 0.000000 105.884003 107.446999 153.682007 # HC2 VIN
182 1 12 0.000000 104.404999 108.431999 154.710007 # O1 VIN
183 1 9 0.000000 104.239998 109.045998 153.994995 # HO1 VIN
184 1 10 0.000000 102.956001 107.389999 152.626999 # HT VIN
185 1 3 0.000000 104.044998 107.359001 152.350006 # C1 VIN
186 1 4 0.000000 104.541000 108.508003 151.533997 # C2* VIN
187 1 1 0.000000 104.274002 106.375000 151.992996 # 1H1C VIN
188 1 7 0.000000 105.593002 108.294998 151.164001 # HC2 VIN
189 1 12 0.000000 104.572998 109.678001 152.375000 # O1 VIN
190 1 9 0.000000 104.637001 110.421997 151.824997 # HO1 VIN
191 1 10 0.000000 102.730003 109.172997 150.917999 # HT VIN
192 1 3 0.000000 103.612999 108.847000 150.365997 # C1 VIN
193 1 4 0.000000 104.141998 109.992996 149.490005 # C2* VIN
194 1 1 0.000000 103.500000 107.876999 149.813004 # 1H1C VIN
195 1 7 0.000000 103.418999 110.238998 148.735992 # HC2 VIN
196 1 12 0.000000 104.341003 111.157997 150.255997 # O1 VIN
197 1 9 0.000000 105.025002 111.607002 149.701004 # HO1 VIN
198 1 10 0.000000 105.365997 108.691002 148.225998 # HT VIN
199 1 3 0.000000 105.448997 109.665001 148.766006 # C1 VIN
200 1 4 0.000000 105.942001 110.669998 147.718002 # C2* VIN
201 1 1 0.000000 106.361000 109.488998 149.483994 # 1H1C VIN
202 1 7 0.000000 106.842003 110.223000 147.182999 # HC2 VIN
203 1 12 0.000000 106.225998 111.932999 148.373993 # O1 VIN
204 1 9 0.000000 106.563004 112.519997 147.623993 # HO1 VIN
205 1 10 0.000000 104.240997 111.755997 146.945007 # HT VIN
206 1 3 0.000000 104.980003 111.057999 146.585999 # C1 VIN
207 1 4 0.000000 105.661003 111.621002 145.371002 # C2* VIN
208 1 1 0.000000 104.358002 110.195000 146.320007 # 1H1C VIN
209 1 7 0.000000 106.050003 112.629997 145.507996 # HC2 VIN
210 1 12 0.000000 106.664001 110.764000 144.970993 # O1 VIN
211 1 9 0.000000 106.239998 110.274002 144.270996 # HO1 VIN
212 1 10 0.000000 103.792000 112.406998 144.544998 # HT VIN
213 1 3 0.000000 104.653000 111.738998 144.194000 # C1 VIN
214 1 4 0.000000 105.273003 112.176003 142.873993 # C2* VIN
215 1 1 0.000000 104.248001 110.739998 144.054993 # 1H1C VIN
216 1 7 0.000000 106.037003 111.407997 142.520004 # HC2 VIN
217 1 12 0.000000 105.862000 113.421997 142.901001 # O1 VIN
218 1 9 0.000000 105.606003 113.779999 142.067993 # HO1 VIN
219 1 10 0.000000 103.837997 113.325996 141.843002 # HT VIN
220 1 3 0.000000 104.216003 112.333000 141.785004 # C1 VIN
221 1 4 0.000000 104.723999 112.239998 140.389999 # C2* VIN
222 1 1 0.000000 103.328003 111.666000 141.973007 # 1H1C VIN
223 1 7 0.000000 105.352997 111.331001 140.328003 # HC2 VIN
224 1 12 0.000000 105.563004 113.405998 140.080002 # O1 VIN
225 1 9 0.000000 105.029999 113.917999 139.494995 # HO1 VIN
226 1 10 0.000000 103.165001 113.403000 139.399002 # HT VIN
227 1 3 0.000000 103.526001 112.325996 139.406998 # C1 VIN
228 1 4 0.000000 103.883003 111.893997 137.953995 # C2* VIN
229 1 1 0.000000 102.661003 111.760002 139.740005 # 1H1C VIN
230 1 7 0.000000 104.412003 110.938004 137.867004 # HC2 VIN
231 1 12 0.000000 104.703003 112.945000 137.432999 # O1 VIN
232 1 9 0.000000 105.595001 112.711998 137.578995 # HO1 VIN
233 1 10 0.000000 103.228996 111.651001 135.968994 # HT VIN
234 1 3 0.000000 102.790001 111.947998 136.893997 # C1 VIN
235 1 4 0.000000 101.585999 111.120003 137.085999 # C2* VIN
236 1 1 0.000000 102.418999 113.004997 136.904007 # 1H1C VIN
237 1 7 0.000000 101.196999 111.611000 137.996002 # HC2 VIN
238 1 12 0.000000 100.786003 111.457001 136.020996 # O1 VIN
239 1 9 0.000000 101.445000 111.542999 135.304001 # HO1 VIN
240 1 10 0.000000 102.462997 109.265999 137.770996 # HT VIN
241 1 3 0.000000 101.530998 109.563004 137.238007 # C1 VIN
242 1 4 0.000000 100.241997 109.024002 137.802994 # C2* VIN
243 1 1 0.000000 101.644997 108.969002 136.302994 # 1H1C VIN
244 1 7 0.000000 100.384003 107.925003 137.998001 # HC2 VIN
245 1 12 0.000000 99.245003 109.178001 136.804993 # O1 VIN
246 1 9 0.000000 99.158997 110.116997 136.533997 # HO1 VIN
247 1 10 0.000000 99.385002 110.734001 138.891998 # HT VIN
248 1 3 0.000000 99.762001 109.678001 139.080002 # C1 VIN
249 1 4 0.000000 98.773003 108.794998 139.865005 # C2* VIN
250 1 1 0.000000 100.620003 109.914001 139.714005 # 1H1C VIN
251 1 7 0.000000 97.888000 108.443001 139.266998 # HC2 VIN
252 1 12 0.000000 98.222000 109.640999 140.826996 # O1 VIN
253 1 9 0.000000 97.713997 110.374001 140.479004 # HO1 VIN
254 1 10 0.000000 100.261002 108.029999 141.356003 # HT VIN
255 1 3 0.000000 99.476997 107.629997 140.673004 # C1 VIN
256 1 4 0.000000 98.500999 106.737999 141.511993 # C2* VIN
257 1 1 0.000000 100.087997 106.915001 140.001007 # 1H1C VIN
258 1 7 0.000000 98.052002 107.362000 142.296997 # HC2 VIN
259 1 12 0.000000 99.178001 105.663002 142.175003 # O1 VIN
260 1 9 0.000000 98.459000 105.058998 142.294998 # HO1 VIN
261 1 10 0.000000 97.857002 105.401001 139.912003 # HT VIN
262 1 3 0.000000 97.388000 106.009003 140.753006 # C1 VIN
263 1 4 0.000000 96.445999 105.161003 141.615005 # C2* VIN
264 1 1 0.000000 96.682999 106.752998 140.291000 # 1H1C VIN
265 1 7 0.000000 96.921997 104.236000 142.020004 # HC2 VIN
266 1 12 0.000000 95.917000 105.944000 142.651993 # O1 VIN
267 1 9 0.000000 94.931000 105.765999 142.606995 # HO1 VIN
268 1 10 0.000000 95.605003 104.417000 139.684006 # HT VIN
269 1 3 0.000000 95.268997 104.734001 140.699997 # C1 VIN
270 1 4 0.000000 94.073997 103.936996 141.188004 # C2* VIN
271 1 1 0.000000 94.764000 105.656998 140.403000 # 1H1C VIN
272 1 7 0.000000 93.317001 104.108002 140.386002 # HC2 VIN
273 1 12 0.000000 93.807999 104.278000 142.541000 # O1 VIN
274 1 9 0.000000 93.623001 103.433998 142.964996 # HO1 VIN
275 1 10 0.000000 95.358002 102.294998 141.785004 # HT VIN
276 1 3 0.000000 94.484001 102.472000 141.136993 # C1 VIN
277 1 4 0.000000 93.369003 101.481003 141.608002 # C2* VIN
278 1 1 0.000000 94.921997 102.190002 140.134003 # 1H1C VIN
279 1 7 0.000000 92.463997 101.773003 141.016998 # HC2 VIN
280 1 12 0.000000 93.221001 101.574997 142.990005 # O1 VIN
281 1 9 0.000000 92.913002 100.705002 143.332001 # HO1 VIN
282 1 10 0.000000 94.679001 99.717003 141.985992 # HT VIN
283 1 3 0.000000 93.813004 100.081001 141.324005 # C1 VIN
284 1 4 0.000000 92.670998 99.004997 141.410004 # C2* VIN
285 1 1 0.000000 94.295998 100.071999 140.315002 # 1H1C VIN
286 1 7 0.000000 91.762001 99.365997 140.903000 # HC2 VIN
287 1 12 0.000000 92.355003 98.922997 142.811005 # O1 VIN
288 1 9 0.000000 91.707001 98.221001 142.735001 # HO1 VIN
289 1 10 0.000000 92.300003 96.873001 141.229996 # HT VIN
290 1 3 0.000000 93.042999 97.597000 140.716995 # C1 VIN
291 1 4 0.000000 92.865997 97.601997 139.194000 # C2* VIN
292 1 1 0.000000 94.122002 97.285004 140.947998 # 1H1C VIN
293 1 7 0.000000 91.880997 97.985001 138.908005 # HC2 VIN
294 1 12 0.000000 93.818001 98.472000 138.613998 # O1 VIN
295 1 9 0.000000 94.709999 98.156998 138.695007 # HO1 VIN
296 1 10 0.000000 94.030998 95.691002 138.981995 # HT VIN
297 1 3 0.000000 93.084999 96.250999 138.500000 # C1 VIN
298 1 4 0.000000 91.801003 95.291000 138.384995 # C2* VIN
299 1 1 0.000000 93.540001 96.355003 137.464996 # 1H1C VIN
300 1 7 0.000000 91.035004 95.455002 139.203995 # HC2 VIN
301 1 12 0.000000 92.307999 93.927002 138.330002 # O1 VIN
302 1 9 0.000000 91.439003 93.328003 138.434998 # HO1 VIN
303 1 10 0.000000 91.939003 95.547997 136.266998 # HT VIN
304 1 3 0.000000 91.167000 95.634003 137.020996 # C1 VIN
305 1 4 0.000000 90.105003 94.620003 136.520996 # C2* VIN
306 1 1 0.000000 90.861000 96.725998 136.901993 # 1H1C VIN
307 1 7 0.000000 90.583000 93.567001 136.483994 # HC2 VIN
308 1 12 0.000000 88.877998 94.643997 137.244003 # O1 VIN
309 1 9 0.000000 88.223000 94.776001 136.604004 # HO1 VIN
310 1 10 0.000000 90.785004 95.079002 134.399994 # HT VIN
311 1 3 0.000000 89.885002 94.932999 135.003006 # C1 VIN
312 1 4 0.000000 88.884003 94.072998 134.233002 # C2* VIN
313 1 1 0.000000 89.447998 96.000000 135.072998 # 1H1C VIN
314 1 7 0.000000 87.934998 94.015999 134.834000 # HC2 VIN
315 1 12 0.000000 89.557999 92.824997 134.091003 # O1 VIN
316 1 9 0.000000 88.908997 92.295998 133.604996 # HO1 VIN
317 1 10 0.000000 89.578003 95.234001 132.537003 # HT VIN
318 1 3 0.000000 88.626999 94.829002 132.899994 # C1 VIN
319 1 4 0.000000 87.681000 94.130997 131.895996 # C2* VIN
320 1 1 0.000000 88.106003 95.763000 133.197006 # 1H1C VIN
321 1 7 0.000000 88.198997 93.301003 131.341003 # HC2 VIN
322 1 12 0.000000 86.543999 93.695000 132.559006 # O1 VIN
323 1 9 0.000000 85.848000 93.955002 131.938995 # HO1 VIN
324 1 10 0.000000 87.952003 95.597000 130.393997 # HT VIN
325 1 3 0.000000 87.120003 95.110001 130.886002 # C1 VIN
326 1 4 0.000000 86.322998 94.445000 129.679001 # C2* VIN
327 1 1 0.000000 86.475998 95.980003 131.264008 # 1H1C VIN
328 1 7 0.000000 86.955002 93.700996 129.242004 # HC2 VIN
329 1 12 0.000000 86.171997 95.504997 128.688004 # O1 VIN
330 1 9 0.000000 85.308998 95.295998 128.283997 # HO1 VIN
331 1 10 0.000000 84.250000 94.599998 130.261002 # HT VIN
332 1 3 0.000000 84.988998 93.827003 129.830994 # C1 VIN
333 1 4 0.000000 84.466003 93.261002 128.453003 # C2* VIN
334 1 1 0.000000 85.015999 93.001999 130.612000 # 1H1C VIN
335 1 7 0.000000 85.316002 92.792000 127.927002 # HC2 VIN
336 1 12 0.000000 83.893997 94.359001 127.717003 # O1 VIN
337 1 9 0.000000 83.206001 93.862000 127.247002 # HO1 VIN
338 1 10 0.000000 82.547997 92.986000 129.121002 # HT VIN
339 1 3 0.000000 83.278999 92.345001 128.684998 # C1 VIN
340 1 4 0.000000 82.648003 91.742996 127.389000 # C2* VIN
341 1 1 0.000000 83.376999 91.528000 129.451996 # 1H1C VIN
342 1 7 0.000000 83.375000 91.084000 126.813004 # HC2 VIN
343 1 12 0.000000 82.246002 92.778999 126.514999 # O1 VIN
344 1 9 0.000000 81.519997 92.223000 126.068001 # HO1 VIN
345 1 10 0.000000 80.580002 91.522003 128.291000 # HT VIN
346 1 3 0.000000 81.336998 90.931000 127.741997 # C1 VIN
347 1 4 0.000000 80.649002 90.305000 126.498001 # C2* VIN
348 1 1 0.000000 81.577003 90.191002 128.457001 # 1H1C VIN
349 1 7 0.000000 81.399002 89.570999 125.962997 # HC2 VIN
350 1 12 0.000000 80.274002 91.302002 125.544998 # O1 VIN
351 1 9 0.000000 79.410004 91.557999 125.718002 # HO1 VIN
352 1 10 0.000000 79.802002 88.426003 127.292999 # HT VIN
353 1 3 0.000000 79.452003 89.399002 126.771004 # C1 VIN
354 1 4 0.000000 78.338997 90.028000 127.642998 # C2* VIN
355 1 1 0.000000 79.045998 88.956001 125.834999 # 1H1C VIN
356 1 7 0.000000 78.776001 90.235001 128.660004 # HC2 VIN
357 1 12 0.000000 77.285004 89.042000 127.750000 # O1 VIN
358 1 9 0.000000 77.329002 88.611000 126.846001 # HO1 VIN
359 1 10 0.000000 77.646004 91.228996 126.077003 # HT VIN
360 1 3 0.000000 77.706001 91.382004 127.148003 # C1 VIN
361 1 4 0.000000 76.325996 91.772003 127.603996 # C2* VIN
362 1 1 0.000000 78.464996 92.234001 127.322998 # 1H1C VIN
363 1 7 0.000000 75.565002 90.946999 127.333000 # HC2 VIN
364 1 12 0.000000 76.038002 93.039001 127.068001 # O1 VIN
365 1 9 0.000000 75.288002 93.449997 127.621002 # HO1 VIN
366 1 10 0.000000 76.836998 92.836998 129.449005 # HT VIN
367 1 3 0.000000 76.188004 92.001999 129.121994 # C1 VIN
368 1 4 0.000000 74.717003 92.138000 129.598999 # C2* VIN
369 1 1 0.000000 76.671997 91.217003 129.709000 # 1H1C VIN
370 1 7 0.000000 74.100998 91.304001 129.268997 # HC2 VIN
371 1 12 0.000000 74.088997 93.303001 129.065002 # O1 VIN
372 1 9 0.000000 73.412003 93.554001 129.662003 # HO1 VIN
373 1 10 0.000000 75.320999 92.760002 131.557007 # HT VIN
374 1 3 0.000000 74.550003 92.139000 131.112000 # C1 VIN
375 1 4 0.000000 73.195000 92.602997 131.697006 # C2* VIN
376 1 1 0.000000 74.776001 91.114998 131.488998 # 1H1C VIN
377 1 7 0.000000 72.917999 93.606003 131.388000 # HC2 VIN
378 1 12 0.000000 73.411003 92.719002 133.061005 # O1 VIN
379 1 9 0.000000 73.699997 91.818001 133.274002 # HO1 VIN
380 1 10 0.000000 72.019997 90.767998 131.994995 # HT VIN
381 1 3 0.000000 71.939003 91.717003 131.395004 # C1 VIN
382 1 4 0.000000 70.699997 92.459999 131.951004 # C2* VIN
383 1 1 0.000000 71.873001 91.544998 130.302002 # 1H1C VIN
384 1 7 0.000000 70.595001 93.422997 131.438004 # HC2 VIN
385 1 12 0.000000 70.862000 92.810997 133.309998 # O1 VIN
386 1 9 0.000000 71.778000 93.075996 133.250000 # HO1 VIN
387 1 10 0.000000 69.402000 90.672997 131.990997 # HT VIN
388 1 3 0.000000 69.362000 91.709999 131.632996 # C1 VIN
389 1 4 0.000000 68.124001 92.364998 132.207001 # C2* VIN
390 1 1 0.000000 69.247002 91.528000 130.539993 # 1H1C VIN
391 1 7 0.000000 68.445000 92.591003 133.257004 # HC2 VIN
392 1 12 0.000000 67.933998 93.646004 131.479996 # O1 VIN
393 1 9 0.000000 68.552002 94.224998 131.929001 # HO1 VIN
394 1 10 0.000000 66.140999 91.761002 133.100006 # HT VIN
395 1 3 0.000000 66.825996 91.433998 132.345993 # C1 VIN
396 1 4 0.000000 66.139000 91.217003 131.035995 # C2* VIN
397 1 1 0.000000 67.213997 90.483002 132.628998 # 1H1C VIN
398 1 7 0.000000 66.832001 91.291000 130.119995 # HC2 VIN
399 1 12 0.000000 65.296997 92.328003 130.858994 # O1 VIN
400 1 9 0.000000 65.925003 93.056999 130.927994 # HO1 VIN
401 1 10 0.000000 64.384003 90.212997 130.412994 # HT VIN
402 1 3 0.000000 65.302002 89.941002 130.921005 # C1 VIN
403 1 4 0.000000 66.086998 88.760002 130.389999 # C2* VIN
404 1 1 0.000000 64.801003 89.655998 131.891006 # 1H1C VIN
405 1 7 0.000000 67.010002 89.027000 129.798004 # HC2 VIN
406 1 12 0.000000 65.226997 87.959000 129.613998 # O1 VIN
407 1 9 0.000000 65.686996 87.127998 129.445007 # HO1 VIN
408 1 10 0.000000 65.777000 86.997002 131.845001 # HT VIN
409 1 3 0.000000 66.572998 87.714996 131.472000 # C1 VIN
410 1 4 0.000000 67.683998 86.778000 131.009003 # C2* VIN
411 1 1 0.000000 66.898003 88.266998 132.358002 # 1H1C VIN
412 1 7 0.000000 68.455002 87.404999 130.615005 # HC2 VIN
413 1 12 0.000000 67.223999 85.903999 129.988998 # O1 VIN
414 1 9 0.000000 68.025002 85.370003 129.882996 # HO1 VIN
415 1 10 0.000000 67.197998 85.168999 132.559998 # HT VIN
416 1 3 0.000000 68.114998 85.903000 132.257996 # C1 VIN
417 1 4 0.000000 69.317001 84.976997 132.039001 # C2* VIN
418 1 1 0.000000 68.352997 86.640999 133.067993 # 1H1C VIN
419 1 7 0.000000 69.199997 84.253998 131.190994 # HC2 VIN
420 1 12 0.000000 70.471001 85.836998 131.837997 # O1 VIN
421 1 9 0.000000 71.220001 85.365997 132.179001 # HO1 VIN
422 1 10 0.000000 68.637001 83.500000 133.393997 # HT VIN
423 1 3 0.000000 69.518997 84.108002 133.296005 # C1 VIN
424 1 4 0.000000 70.704002 83.153999 133.188004 # C2* VIN
425 1 1 0.000000 69.537003 84.767998 134.203003 # 1H1C VIN
426 1 7 0.000000 71.619003 83.811996 133.244995 # HC2 VIN
427 1 12 0.000000 70.610001 82.364998 132.042007 # O1 VIN
428 1 9 0.000000 69.813004 81.834999 132.125000 # HO1 VIN
429 1 10 0.000000 70.752998 82.832001 135.410004 # HT VIN
430 1 3 0.000000 70.799004 82.194000 134.462997 # C1 VIN
431 1 4 0.000000 69.891998 80.946999 134.598007 # C2* VIN
432 1 1 0.000000 71.894997 81.893997 134.417999 # 1H1C VIN
433 1 7 0.000000 70.146004 80.221001 133.779007 # HC2 VIN
434 1 12 0.000000 68.526001 81.402000 134.550003 # O1 VIN
435 1 9 0.000000 68.005997 80.654999 134.244995 # HO1 VIN
436 1 10 0.000000 70.494003 81.028999 136.677002 # HT VIN
437 1 3 0.000000 70.184998 80.233002 135.955994 # C1 VIN
438 1 4 0.000000 69.023003 79.376999 136.399002 # C2* VIN
439 1 1 0.000000 71.117996 79.667000 135.727005 # 1H1C VIN
440 1 7 0.000000 68.657997 78.858002 135.516998 # HC2 VIN
441 1 12 0.000000 67.953003 80.210999 136.858994 # O1 VIN
442 1 9 0.000000 68.172997 81.138000 136.645004 # HO1 VIN
443 1 10 0.000000 69.768997 78.918999 138.384003 # HT VIN
444 1 3 0.000000 69.367996 78.403000 137.518005 # C1 VIN
445 1 4 0.000000 68.342003 77.349998 137.962006 # C2* VIN
446 1 1 0.000000 70.294998 77.815002 137.197006 # 1H1C VIN
447 1 7 0.000000 67.292999 77.821999 138.115997 # HC2 VIN
448 1 12 0.000000 68.830002 76.750999 139.186996 # O1 VIN
449 1 9 0.000000 69.308998 75.947998 138.940994 # HO1 VIN
450 1 10 0.000000 67.554001 75.435997 137.492996 # HT VIN
451 1 3 0.000000 68.164001 76.221001 136.966995 # C1 VIN
452 1 4 0.000000 67.228996 76.497002 135.727997 # C2* VIN
453 1 1 0.000000 69.153999 75.783997 136.675995 # 1H1C VIN
454 1 7 0.000000 67.837997 77.004997 134.949997 # HC2 VIN
455 1 12 0.000000 66.107002 77.200996 136.147003 # O1 VIN
456 1 9 0.000000 66.202003 77.305000 137.063004 # HO1 VIN
457 1 10 0.000000 66.253998 74.464996 135.860001 # HT VIN
458 1 3 0.000000 66.726997 75.113998 135.080002 # C1 VIN
459 1 4 0.000000 65.766998 75.389000 133.889008 # C2* VIN
460 1 1 0.000000 67.731003 74.589996 134.733994 # 1H1C VIN
461 1 7 0.000000 65.033997 76.167000 134.188004 # HC2 VIN
462 1 12 0.000000 66.504997 75.957001 132.817993 # O1 VIN
463 1 9 0.000000 67.017998 76.678001 133.160004 # HO1 VIN
464 1 10 0.000000 65.827003 73.531998 132.955002 # HT VIN
465 1 3 0.000000 65.053001 74.192001 133.367996 # C1 VIN
466 1 4 0.000000 64.136002 73.406998 134.291000 # C2* VIN
467 1 1 0.000000 64.313004 74.526001 132.619995 # 1H1C VIN
468 1 7 0.000000 64.681000 73.049004 135.117996 # HC2 VIN
469 1 12 0.000000 63.757000 72.226997 133.542999 # O1 VIN
470 1 9 0.000000 63.651001 72.413002 132.604004 # HO1 VIN
471 1 10 0.000000 62.214001 74.236000 133.882004 # HT VIN
472 1 3 0.000000 62.872002 74.080002 134.753998 # C1 VIN
473 1 4 0.000000 62.186001 73.353996 135.906006 # C2* VIN
474 1 1 0.000000 63.136002 75.144997 134.987000 # 1H1C VIN