LAMMPS data file. CGCMM style. atom_style full generated by VMD/TopoTools v1.8 on Mon Apr 03 16:06:35 +0530 2023
 3596 atoms
 3632 bonds
 6624 angles
 10296 dihedrals
 0 impropers
 17 atom types
 18 bond types
 31 angle types
 34 dihedral types
 0 improper types
 0.194500 90.194500  xlo xhi
 -0.043001 89.956999  ylo yhi
 0.018501 90.018501  zlo zhi

Pair Coeffs

1 0.038 2.44997
2 0.038 2.44997
3 0.039 3.87541
4 0.039 3.87541
5 0.038 2.44997
6 0.038 2.44997
7 0.038 2.44997
8 0.038 2.44997
9 0.038 2.44997
10 0.228 2.85978
11 0.228 2.85978
12 0.228 2.85978
13 0.04  4.05343 
14 0.148 3.61705
15 0.039 3.87541
16 0.038 2.44997
17 0.228 2.85978

Bond Coeffs

1 340.618 1.105
2 340.618 1.105
3 322.716 1.526
4 340.618 1.105
5 340.618 1.105
6 340.618 1.105
7 384 1.42
8 540.634 0.96
9 540.634 0.96
10 222.4 1.382
11 540.634 0.96
12 392.8 1.6652
13 392.8 1.6652
14 283.092 1.52
15 340.618 1.105
16 615.322 1.23
17 322.716 1.526
18 340.618 1.105

Angle Coeffs

1 39.5 106.4
2 44.4 110
3 39.5 106.4
4 44.4 110
5 39.5 106.4
6 46.6 110.5
7 44.4 110
8 44.4 110
9 70 109.5
10 46.6 110.5
11 44.4 110
12 58.5 106
13 33.3 113.4
14 33.3 113.4
15 33.3 113.4
16 33.3 113.4
17 39.5 106.4
18 57 109.5
19 57 109.5
20 42.3 113.1
21 42.3 113.1
22 42.3 113.1
23 31.1 149.8
24 46.6 110.5
25 45 109.5
26 50 120
27 68 120
28 46.6 110.5
29 44.4 110
30 55 120
31 39.5 106.4

Dihedral Coeffs

1  1.4225 1 3
2  1.4225 1 3
3  1.4225 1 3
4  1.4225 1 3
5  1.4225 1 3
6  1.4225 1 3
7  1.4225 1 3
8  0.39 1 3
9  1.4225 1 3
10  1.4225 1 3
11  1.4225 1 3
12  1.4225 1 3
13  1 1 3
14  1 1 3
15  1 1 3
16  1 1 3
17  1 1 3
18  0.39 1 3
19  0.39 1 3
20  1.4225 1 3
21  1.4225 1 3
22  1.4225 1 3
23  1.4225 1 3
24  1 1 3 
25  0.3 1 3
26  0.3 1 3
27  1.4225 1 3
28  1.4225 1 3
29  1.4225 1 3
30 0 1 0
31 0 1 0
32  1.4225 1 3
33 0 1 0
34 0 1 0

 Masses

 1 1.007940 # 1H1C
 2 1.007940 # 1H2C
 3 12.010700 # C1
 4 12.010700 # C2*
 5 1.007940 # H
 6 1.007940 # HC2
 7 1.007940 # HH
 8 1.007940 # HO1
 9 1.007940 # HT
 10 15.999400 # O
 11 15.999400 # O1
 12 15.999400 # OX1
 13 28.085501 # SI1
 14 12.010700 # c1
 15 12.010700 # c2
 16 1.007940 # h
 17 15.999400 # o

 Atoms # full

1 1 9 0.000000 79.077003 90.019997 7.878000 # HT VIN
2 1 3 0.000000 78.882004 89.242996 8.640000 # C1 VIN
3 1 4 0.000000 77.791000 88.306000 8.251000 # C2* VIN
4 1 1 0.000000 78.696999 89.811996 9.542000 # 1H1C VIN
5 1 2 0.000000 79.901001 88.796997 8.648000 # 1H2C VIN
6 1 6 0.000000 76.801003 88.813004 8.262000 # HC2 VIN
7 1 11 0.000000 77.875000 87.313004 9.271000 # O1 VIN
8 1 8 0.000000 78.794998 87.051003 9.283000 # HO1 VIN
9 1 9 0.000000 78.970001 87.024002 7.101000 # HT VIN
10 1 3 0.000000 77.998001 87.574997 6.899000 # C1 VIN
11 1 4 0.000000 76.783997 86.610001 6.647000 # C2* VIN
12 1 1 0.000000 78.182999 88.223000 6.077000 # 1H1C VIN
13 1 6 0.000000 76.528000 86.088997 7.586000 # HC2 VIN
14 1 11 0.000000 75.661003 87.429001 6.278000 # O1 VIN
15 1 8 0.000000 75.623001 87.372002 5.354000 # HO1 VIN
16 1 9 0.000000 77.459000 86.082001 4.641000 # HT VIN
17 1 3 0.000000 77.027000 85.624001 5.535000 # C1 VIN
18 1 4 0.000000 77.762001 84.356003 5.935000 # C2* VIN
19 1 1 0.000000 75.970001 85.320999 5.173000 # 1H1C VIN
20 1 6 0.000000 77.254997 83.992996 6.901000 # HC2 VIN
21 1 11 0.000000 79.170998 84.518997 6.256000 # O1 VIN
22 1 8 0.000000 79.469002 83.628998 6.142000 # HO1 VIN
23 1 9 0.000000 77.654999 83.669998 3.881000 # HT VIN
24 1 3 0.000000 77.505997 83.251999 4.907000 # C1 VIN
25 1 4 0.000000 78.390999 81.957001 4.992000 # C2* VIN
26 1 1 0.000000 76.411003 82.955002 4.842000 # 1H1C VIN
27 1 6 0.000000 79.338997 82.212997 4.425000 # HC2 VIN
28 1 11 0.000000 78.703003 81.614998 6.368000 # O1 VIN
29 1 8 0.000000 77.975998 80.981003 6.561000 # HO1 VIN
30 1 9 0.000000 78.585999 79.911003 4.232000 # HT VIN
31 1 3 0.000000 77.828003 80.690002 4.394000 # C1 VIN
32 1 4 0.000000 76.684998 80.038002 5.198000 # C2* VIN
33 1 1 0.000000 77.407997 80.929001 3.374000 # 1H1C VIN
34 1 6 0.000000 75.730003 80.722000 5.084000 # HC2 VIN
35 1 11 0.000000 77.042000 79.768997 6.559000 # O1 VIN
36 1 8 0.000000 76.974998 78.831001 6.717000 # HO1 VIN
37 1 9 0.000000 77.138000 78.010002 4.462000 # HT VIN
38 1 3 0.000000 76.294998 78.731003 4.497000 # C1 VIN
39 1 4 0.000000 75.005997 78.114998 5.234000 # C2* VIN
40 1 1 0.000000 75.996002 78.863998 3.432000 # 1H1C VIN
41 1 6 0.000000 74.922997 78.453003 6.315000 # HC2 VIN
42 1 11 0.000000 73.819000 78.617996 4.586000 # O1 VIN
43 1 8 0.000000 73.513000 79.360001 5.097000 # HO1 VIN
44 1 9 0.000000 76.182999 76.367996 5.791000 # HT VIN
45 1 3 0.000000 75.153000 76.598999 5.342000 # C1 VIN
46 1 4 0.000000 73.948997 76.091003 6.188000 # C2* VIN
47 1 1 0.000000 75.021004 76.152000 4.340000 # 1H1C VIN
48 1 6 0.000000 72.959999 76.503998 5.801000 # HC2 VIN
49 1 11 0.000000 74.053001 76.611000 7.551000 # O1 VIN
50 1 8 0.000000 74.768997 76.002998 7.889000 # HO1 VIN
51 1 9 0.000000 74.874001 74.280998 6.733000 # HT VIN
52 1 3 0.000000 73.907997 74.594002 6.245000 # C1 VIN
53 1 4 0.000000 72.739998 73.860001 6.972000 # C2* VIN
54 1 1 0.000000 73.972000 74.175003 5.235000 # 1H1C VIN
55 1 6 0.000000 72.760002 74.073997 8.106000 # HC2 VIN
56 1 11 0.000000 71.454002 74.325996 6.460000 # O1 VIN
57 1 8 0.000000 70.809998 73.836998 7.051000 # HO1 VIN
58 1 9 0.000000 73.819000 72.050003 6.772000 # HT VIN
59 1 3 0.000000 72.793999 72.347000 6.783000 # C1 VIN
60 1 4 0.000000 72.110001 71.469002 7.841000 # C2* VIN
61 1 1 0.000000 72.315002 72.220001 5.817000 # 1H1C VIN
62 1 6 0.000000 70.989998 71.596001 7.787000 # HC2 VIN
63 1 11 0.000000 72.668999 71.802002 9.134000 # O1 VIN
64 1 8 0.000000 73.491997 72.249001 8.909000 # HO1 VIN
65 1 9 0.000000 73.418999 69.700996 7.399000 # HT VIN
66 1 3 0.000000 72.362000 69.925003 7.465000 # C1 VIN
67 1 4 0.000000 71.948997 68.852997 8.517000 # C2* VIN
68 1 1 0.000000 71.877998 69.694000 6.541000 # 1H1C VIN
69 1 6 0.000000 72.677002 68.926003 9.414000 # HC2 VIN
70 1 11 0.000000 70.639999 69.169998 9.018000 # O1 VIN
71 1 8 0.000000 70.797997 70.130997 9.042000 # HO1 VIN
72 1 9 0.000000 72.844002 67.301003 7.123000 # HT VIN
73 1 3 0.000000 71.953003 67.469002 7.843000 # C1 VIN
74 1 4 0.000000 72.049004 66.335999 8.890000 # C2* VIN
75 1 1 0.000000 71.112999 67.288002 7.131000 # 1H1C VIN
76 1 6 0.000000 71.237000 66.490997 9.656000 # HC2 VIN
77 1 11 0.000000 73.359001 66.363998 9.436000 # O1 VIN
78 1 8 0.000000 73.793999 65.665001 8.965000 # HO1 VIN
79 1 9 0.000000 70.828003 64.936996 8.008000 # HT VIN
80 1 3 0.000000 71.876999 64.918999 8.373000 # C1 VIN
81 1 4 0.000000 72.642998 64.467003 7.136000 # C2* VIN
82 1 1 0.000000 71.905998 64.156998 9.157000 # 1H1C VIN
83 1 6 0.000000 72.425003 65.213997 6.319000 # HC2 VIN
84 1 11 0.000000 72.105003 63.195000 6.907000 # O1 VIN
85 1 8 0.000000 72.819000 62.771000 6.366000 # HO1 VIN
86 1 9 0.000000 74.262001 63.844002 8.400000 # HT VIN
87 1 3 0.000000 74.149002 64.259003 7.395000 # C1 VIN
88 1 4 0.000000 74.918999 63.508999 6.306000 # C2* VIN
89 1 1 0.000000 74.686996 65.181000 7.446000 # 1H1C VIN
90 1 6 0.000000 74.855003 64.102997 5.353000 # HC2 VIN
91 1 11 0.000000 74.324997 62.208000 6.206000 # O1 VIN
92 1 8 0.000000 74.397003 61.825001 7.095000 # HO1 VIN
93 1 9 0.000000 76.636002 62.868000 7.669000 # HT VIN
94 1 3 0.000000 76.417000 63.306999 6.681000 # C1 VIN
95 1 4 0.000000 77.263000 62.660999 5.602000 # C2* VIN
96 1 1 0.000000 76.768997 64.342003 6.872000 # 1H1C VIN
97 1 6 0.000000 77.069000 63.189999 4.654000 # HC2 VIN
98 1 11 0.000000 78.571999 62.953999 6.040000 # O1 VIN
99 1 8 0.000000 78.671997 62.151001 6.529000 # HO1 VIN
100 1 9 0.000000 77.721001 60.823002 4.497000 # HT VIN
101 1 3 0.000000 77.203003 61.126999 5.486000 # C1 VIN
102 1 4 0.000000 77.857002 60.261002 6.642000 # C2* VIN
103 1 1 0.000000 76.124001 60.699001 5.426000 # 1H1C VIN
104 1 6 0.000000 77.586998 60.535999 7.695000 # HC2 VIN
105 1 11 0.000000 79.259003 60.349998 6.485000 # O1 VIN
106 1 8 0.000000 79.599998 59.477001 6.892000 # HO1 VIN
107 1 9 0.000000 78.097000 58.327999 5.619000 # HT VIN
108 1 3 0.000000 77.612000 58.792999 6.501000 # C1 VIN
109 1 4 0.000000 78.009003 57.944000 7.750000 # C2* VIN
110 1 1 0.000000 76.544998 58.659000 6.322000 # 1H1C VIN
111 1 6 0.000000 77.981003 56.840000 7.578000 # HC2 VIN
112 1 11 0.000000 79.307999 58.268002 8.159000 # O1 VIN
113 1 8 0.000000 79.466003 58.025002 9.081000 # HO1 VIN
114 1 9 0.000000 76.057999 58.092999 8.617000 # HT VIN
115 1 3 0.000000 77.083000 58.183998 8.997000 # C1 VIN
116 1 4 0.000000 77.225998 57.160999 10.119000 # C2* VIN
117 1 1 0.000000 76.989998 59.231998 9.431000 # 1H1C VIN
118 1 6 0.000000 76.586998 57.543999 10.888000 # HC2 VIN
119 1 11 0.000000 78.507004 57.147999 10.719000 # O1 VIN
120 1 8 0.000000 78.733002 56.199001 10.820000 # HO1 VIN
121 1 9 0.000000 77.245003 55.280998 9.095000 # HT VIN
122 1 3 0.000000 76.718002 55.709999 9.941000 # C1 VIN
123 1 4 0.000000 76.790001 54.825001 11.216000 # C2* VIN
124 1 1 0.000000 75.717003 55.681000 9.542000 # 1H1C VIN
125 1 6 0.000000 76.353996 55.374001 12.114000 # HC2 VIN
126 1 11 0.000000 78.153000 54.632000 11.526000 # O1 VIN
127 1 8 0.000000 78.205002 53.818001 11.967000 # HO1 VIN
128 1 9 0.000000 76.671997 52.806999 10.475000 # HT VIN
129 1 3 0.000000 76.039001 53.488998 11.046000 # C1 VIN
130 1 4 0.000000 75.750000 52.790001 12.409000 # C2* VIN
131 1 1 0.000000 75.157997 53.653999 10.427000 # 1H1C VIN
132 1 6 0.000000 75.533997 53.567001 13.168000 # HC2 VIN
133 1 11 0.000000 76.982002 52.124001 12.785000 # O1 VIN
134 1 8 0.000000 76.790001 51.244999 13.129000 # HO1 VIN
135 1 9 0.000000 74.904999 50.916000 11.737000 # HT VIN
136 1 3 0.000000 74.510002 51.823002 12.174000 # C1 VIN
137 1 4 0.000000 73.830002 51.431999 13.523000 # C2* VIN
138 1 1 0.000000 73.740997 52.112999 11.453000 # 1H1C VIN
139 1 6 0.000000 74.602997 50.987999 14.128000 # HC2 VIN
140 1 11 0.000000 72.807999 50.456001 13.220000 # O1 VIN
141 1 8 0.000000 72.280998 50.522999 14.027000 # HO1 VIN
142 1 9 0.000000 72.301003 53.061001 13.648000 # HT VIN
143 1 3 0.000000 73.117996 52.626999 14.259000 # C1 VIN
144 1 4 0.000000 72.572998 52.215000 15.591000 # C2* VIN
145 1 1 0.000000 73.902000 53.414001 14.396000 # 1H1C VIN
146 1 6 0.000000 73.380997 51.640999 16.100000 # HC2 VIN
147 1 11 0.000000 71.514000 51.279999 15.346000 # O1 VIN
148 1 8 0.000000 70.872002 51.488998 16.068001 # HO1 VIN
149 1 9 0.000000 71.292000 53.919998 15.674000 # HT VIN
150 1 3 0.000000 71.963997 53.450001 16.381001 # C1 VIN
151 1 4 0.000000 71.223999 53.001999 17.650000 # C2* VIN
152 1 1 0.000000 72.791000 54.153000 16.648001 # 1H1C VIN
153 1 6 0.000000 71.889000 52.513000 18.334999 # HC2 VIN
154 1 11 0.000000 70.140999 52.144001 17.311001 # O1 VIN
155 1 8 0.000000 69.610001 52.134998 18.135000 # HO1 VIN
156 1 9 0.000000 69.759003 54.665001 17.615000 # HT VIN
157 1 3 0.000000 70.560997 54.201000 18.254999 # C1 VIN
158 1 4 0.000000 69.991997 53.831001 19.663000 # C2* VIN
159 1 1 0.000000 71.316002 54.987000 18.502001 # 1H1C VIN
160 1 6 0.000000 70.886002 53.292999 20.195999 # HC2 VIN
161 1 11 0.000000 69.013000 52.854000 19.615000 # O1 VIN
162 1 8 0.000000 68.418999 53.124001 20.327000 # HO1 VIN
163 1 9 0.000000 68.568001 55.512001 19.753000 # HT VIN
164 1 3 0.000000 69.394997 54.988998 20.370001 # C1 VIN
165 1 4 0.000000 68.842003 54.612000 21.768000 # C2* VIN
166 1 1 0.000000 70.092003 55.771999 20.532000 # 1H1C VIN
167 1 6 0.000000 69.635002 54.030998 22.349001 # HC2 VIN
168 1 11 0.000000 67.642998 53.823002 21.649000 # O1 VIN
169 1 8 0.000000 67.499001 53.598000 22.565001 # HO1 VIN
170 1 9 0.000000 67.612000 56.277000 22.281000 # HT VIN
171 1 3 0.000000 68.505997 55.761002 22.667999 # C1 VIN
172 1 4 0.000000 68.258003 55.326000 24.122999 # C2* VIN
173 1 1 0.000000 69.237999 56.549000 22.646000 # 1H1C VIN
174 1 6 0.000000 68.978996 54.522999 24.375999 # HC2 VIN
175 1 11 0.000000 66.917000 54.792000 24.138000 # O1 VIN
176 1 8 0.000000 66.311996 55.547001 24.143000 # HO1 VIN
177 1 9 0.000000 68.096001 55.734001 26.184999 # HT VIN
178 1 3 0.000000 68.306999 56.320000 25.283001 # C1 VIN
179 1 4 0.000000 69.518997 57.178001 25.566000 # C2* VIN
180 1 1 0.000000 67.421997 57.004002 25.107000 # 1H1C VIN
181 1 6 0.000000 69.580002 58.044998 24.868000 # HC2 VIN
182 1 11 0.000000 70.776001 56.450001 25.356001 # O1 VIN
183 1 8 0.000000 71.265999 56.946999 26.011999 # HO1 VIN
184 1 9 0.000000 69.448997 56.820999 27.726999 # HT VIN
185 1 3 0.000000 69.332001 57.752998 27.108000 # C1 VIN
186 1 4 0.000000 70.307999 58.848000 27.391001 # C2* VIN
187 1 1 0.000000 68.294998 58.019001 27.091000 # 1H1C VIN
188 1 6 0.000000 69.998001 59.793999 26.846001 # HC2 VIN
189 1 11 0.000000 71.601997 58.436001 26.908001 # O1 VIN
190 1 8 0.000000 72.238998 58.987000 27.296000 # HO1 VIN
191 1 9 0.000000 70.922997 58.168999 29.198000 # HT VIN
192 1 3 0.000000 70.476997 59.115002 28.888000 # C1 VIN
193 1 4 0.000000 71.439003 60.275002 29.187000 # C2* VIN
194 1 1 0.000000 69.431999 59.293999 29.256001 # 1H1C VIN
195 1 6 0.000000 71.579002 60.368999 30.247000 # HC2 VIN
196 1 11 0.000000 72.709000 60.029999 28.629999 # O1 VIN
197 1 8 0.000000 73.032997 60.959000 28.539000 # HO1 VIN
198 1 9 0.000000 69.898003 61.820999 29.017000 # HT VIN
199 1 3 0.000000 70.946999 61.632000 28.681000 # C1 VIN
200 1 4 0.000000 71.740997 62.870998 29.110001 # C2* VIN
201 1 1 0.000000 70.862999 61.702999 27.511999 # 1H1C VIN
202 1 6 0.000000 71.179001 63.799000 28.764999 # HC2 VIN
203 1 11 0.000000 73.085999 62.777000 28.573000 # O1 VIN
204 1 8 0.000000 73.526001 63.633999 28.879000 # HO1 VIN
205 1 9 0.000000 72.739998 62.443001 30.976999 # HT VIN
206 1 3 0.000000 71.966003 63.098000 30.612000 # C1 VIN
207 1 4 0.000000 72.290001 64.518997 30.974001 # C2* VIN
208 1 1 0.000000 71.093002 62.741001 31.172001 # 1H1C VIN
209 1 6 0.000000 73.293999 64.833000 30.684999 # HC2 VIN
210 1 11 0.000000 71.343002 65.358002 30.427999 # O1 VIN
211 1 8 0.000000 70.757004 65.504997 31.166000 # HO1 VIN
212 1 9 0.000000 72.989998 63.971001 32.974998 # HT VIN
213 1 3 0.000000 72.242996 64.706001 32.516998 # C1 VIN
214 1 4 0.000000 72.428001 66.142998 32.984001 # C2* VIN
215 1 1 0.000000 71.250000 64.385002 32.819000 # 1H1C VIN
216 1 6 0.000000 71.584000 66.801003 32.590000 # HC2 VIN
217 1 11 0.000000 73.638000 66.707001 32.641998 # O1 VIN
218 1 8 0.000000 73.859001 67.189003 33.421001 # HO1 VIN
219 1 9 0.000000 73.435997 66.088997 34.834000 # HT VIN
220 1 3 0.000000 72.434998 66.239998 34.506001 # C1 VIN
221 1 4 0.000000 72.088997 67.575996 35.058998 # C2* VIN
222 1 1 0.000000 71.841003 65.404999 34.974998 # 1H1C VIN
223 1 6 0.000000 71.161003 67.911003 34.556999 # HC2 VIN
224 1 11 0.000000 73.155998 68.540001 34.751999 # O1 VIN
225 1 8 0.000000 73.580002 68.679001 35.583000 # HO1 VIN
226 1 9 0.000000 73.122002 67.413002 36.974998 # HT VIN
227 1 3 0.000000 72.050003 67.489998 36.608002 # C1 VIN
228 1 4 0.000000 71.364998 68.716003 37.279999 # C2* VIN
229 1 1 0.000000 71.580002 66.581001 36.972000 # 1H1C VIN
230 1 6 0.000000 70.389999 68.994003 36.865002 # HC2 VIN
231 1 11 0.000000 72.282997 69.803001 37.118999 # O1 VIN
232 1 8 0.000000 72.046997 70.265999 36.344002 # HO1 VIN
233 1 9 0.000000 70.814003 69.672997 39.071999 # HT VIN
234 1 3 0.000000 71.278000 68.751999 38.800999 # C1 VIN
235 1 4 0.000000 70.538002 67.678001 39.486000 # C2* VIN
236 1 1 0.000000 72.334000 68.651001 39.161999 # 1H1C VIN
237 1 6 0.000000 71.189003 66.830002 39.206001 # HC2 VIN
238 1 11 0.000000 70.718002 67.957001 40.820000 # O1 VIN
239 1 8 0.000000 70.656998 68.931999 40.823002 # HO1 VIN
240 1 9 0.000000 68.795998 67.499001 38.216999 # HT VIN
241 1 3 0.000000 69.031998 67.299004 39.286999 # C1 VIN
242 1 4 0.000000 68.642998 65.940002 39.810001 # C2* VIN
243 1 1 0.000000 68.285004 67.962997 39.776001 # 1H1C VIN
244 1 6 0.000000 67.587997 65.732002 39.477001 # HC2 VIN
245 1 11 0.000000 68.661003 66.011002 41.227001 # O1 VIN
246 1 8 0.000000 69.542000 66.288002 41.556000 # HO1 VIN
247 1 9 0.000000 70.542000 64.829002 39.862000 # HT VIN
248 1 3 0.000000 69.519997 64.791000 39.365002 # C1 VIN
249 1 4 0.000000 68.818001 63.424999 39.488998 # C2* VIN
250 1 1 0.000000 69.830002 64.946999 38.327999 # 1H1C VIN
251 1 6 0.000000 68.402000 63.207001 40.511002 # HC2 VIN
252 1 11 0.000000 69.834999 62.483002 39.325001 # O1 VIN
253 1 8 0.000000 70.514999 62.500999 39.998001 # HO1 VIN
254 1 9 0.000000 68.264999 63.238998 37.326000 # HT VIN
255 1 3 0.000000 67.782997 63.144001 38.326000 # C1 VIN
256 1 4 0.000000 67.082001 61.745998 38.403000 # C2* VIN
257 1 1 0.000000 66.944000 63.935001 38.262001 # 1H1C VIN
258 1 6 0.000000 67.845001 60.967999 38.263000 # HC2 VIN
259 1 11 0.000000 66.111000 61.563999 37.363998 # O1 VIN
260 1 8 0.000000 65.561996 60.902000 37.758999 # HO1 VIN
261 1 9 0.000000 65.515999 62.268002 39.831001 # HT VIN
262 1 3 0.000000 66.274002 61.433998 39.667000 # C1 VIN
263 1 4 0.000000 65.617996 60.049000 39.708000 # C2* VIN
264 1 1 0.000000 66.954002 61.403000 40.562000 # 1H1C VIN
265 1 6 0.000000 64.760002 59.939999 39.004002 # HC2 VIN
266 1 11 0.000000 66.584000 59.058998 39.471001 # O1 VIN
267 1 8 0.000000 66.435997 58.400002 40.212002 # HO1 VIN
268 1 9 0.000000 64.587997 60.764999 41.556000 # HT VIN
269 1 3 0.000000 65.084999 59.852001 41.150002 # C1 VIN
270 1 4 0.000000 64.425003 58.574001 41.632000 # C2* VIN
271 1 1 0.000000 65.961998 59.862000 41.803001 # 1H1C VIN
272 1 6 0.000000 64.484001 58.667999 42.743000 # HC2 VIN
273 1 11 0.000000 65.000000 57.466999 40.951000 # O1 VIN
274 1 8 0.000000 64.247002 56.910999 40.728001 # HO1 VIN
275 1 9 0.000000 62.863998 58.764999 40.140999 # HT VIN
276 1 3 0.000000 62.959000 58.669998 41.234001 # C1 VIN
277 1 4 0.000000 62.102001 57.429001 41.653000 # C2* VIN
278 1 1 0.000000 62.495998 59.647999 41.558998 # 1H1C VIN
279 1 6 0.000000 62.321999 57.289001 42.741001 # HC2 VIN
280 1 11 0.000000 62.433998 56.345001 40.842999 # O1 VIN
281 1 8 0.000000 61.646000 55.761002 40.763000 # HO1 VIN
282 1 9 0.000000 60.382999 57.778000 40.277000 # HT VIN
283 1 3 0.000000 60.660000 57.726002 41.390999 # C1 VIN
284 1 4 0.000000 59.653999 56.733002 42.078999 # C2* VIN
285 1 1 0.000000 60.463001 58.779999 41.710999 # 1H1C VIN
286 1 6 0.000000 59.956001 56.539001 43.122002 # HC2 VIN
287 1 11 0.000000 59.821999 55.494999 41.365002 # O1 VIN
288 1 8 0.000000 59.140999 55.007999 41.832001 # HO1 VIN
289 1 9 0.000000 57.537998 56.294998 42.284000 # HT VIN
290 1 3 0.000000 58.138000 57.275002 42.145000 # C1 VIN
291 1 4 0.000000 57.890999 58.257000 43.296001 # C2* VIN
292 1 1 0.000000 57.831001 57.791000 41.167999 # 1H1C VIN
293 1 6 0.000000 58.254002 57.855000 44.248001 # HC2 VIN
294 1 11 0.000000 58.615002 59.448002 43.061001 # O1 VIN
295 1 8 0.000000 58.286999 59.945000 42.323002 # HO1 VIN
296 1 9 0.000000 55.931000 58.911999 42.410999 # HT VIN
297 1 3 0.000000 56.435001 58.705002 43.480999 # C1 VIN
298 1 4 0.000000 55.514999 57.778000 44.417999 # C2* VIN
299 1 1 0.000000 56.346001 59.775002 43.848999 # 1H1C VIN
300 1 6 0.000000 55.842999 56.694000 44.449001 # HC2 VIN
301 1 11 0.000000 54.144001 57.958000 43.960999 # O1 VIN
302 1 8 0.000000 53.603001 57.206001 44.478001 # HO1 VIN
303 1 9 0.000000 55.404999 59.439999 45.758999 # HT VIN
304 1 3 0.000000 55.645000 58.387001 45.831001 # C1 VIN
305 1 4 0.000000 54.598999 57.880001 46.858002 # C2* VIN
306 1 1 0.000000 56.710999 58.428001 46.231998 # 1H1C VIN
307 1 6 0.000000 53.537998 58.073002 46.437000 # HC2 VIN
308 1 11 0.000000 54.787998 56.532001 47.278999 # O1 VIN
309 1 8 0.000000 54.833000 56.573002 48.202000 # HO1 VIN
310 1 9 0.000000 54.667999 59.938999 47.820000 # HT VIN
311 1 3 0.000000 54.658001 58.875000 48.066002 # C1 VIN
312 1 4 0.000000 53.715000 58.626999 49.243000 # C2* VIN
313 1 1 0.000000 55.736000 58.687000 48.435001 # 1H1C VIN
314 1 6 0.000000 53.794998 57.543999 49.534000 # HC2 VIN
315 1 11 0.000000 52.438999 59.000000 48.730999 # O1 VIN
316 1 8 0.000000 51.858002 58.833000 49.487999 # HO1 VIN
317 1 9 0.000000 54.547001 60.493000 49.972000 # HT VIN
318 1 3 0.000000 54.243999 59.528999 50.393002 # C1 VIN
319 1 4 0.000000 53.418999 59.511002 51.700001 # C2* VIN
320 1 1 0.000000 55.233002 59.102001 50.660999 # 1H1C VIN
321 1 6 0.000000 52.490002 60.139000 51.617001 # HC2 VIN
322 1 11 0.000000 53.143002 58.200001 52.055000 # O1 VIN
323 1 8 0.000000 53.319000 58.216000 53.007000 # HO1 VIN
324 1 9 0.000000 54.598999 60.998001 52.638000 # HT VIN
325 1 3 0.000000 54.233002 60.007999 52.877998 # C1 VIN
326 1 4 0.000000 53.402000 60.243000 54.215000 # C2* VIN
327 1 1 0.000000 55.176998 59.429001 53.175999 # 1H1C VIN
328 1 6 0.000000 52.573002 60.875000 53.977001 # HC2 VIN
329 1 11 0.000000 54.283001 61.014000 55.084999 # O1 VIN
330 1 8 0.000000 54.039001 60.692001 55.973000 # HO1 VIN
331 1 9 0.000000 53.727001 58.445999 55.366001 # HT VIN
332 1 3 0.000000 52.866001 59.139999 55.041000 # C1 VIN
333 1 4 0.000000 52.092999 59.698002 56.299999 # C2* VIN
334 1 1 0.000000 52.185001 58.472000 54.424999 # 1H1C VIN
335 1 6 0.000000 51.513000 60.583000 55.985001 # HC2 VIN
336 1 11 0.000000 53.070000 60.006001 57.312000 # O1 VIN
337 1 8 0.000000 52.526001 59.807999 58.090000 # HO1 VIN
338 1 9 0.000000 52.004002 57.880001 57.241001 # HT VIN
339 1 3 0.000000 51.272999 58.591999 56.938000 # C1 VIN
340 1 4 0.000000 50.483002 59.013000 58.216999 # C2* VIN
341 1 1 0.000000 50.595001 57.984001 56.278999 # 1H1C VIN
342 1 6 0.000000 49.709999 59.823002 58.009998 # HC2 VIN
343 1 11 0.000000 51.369999 59.528000 59.192001 # O1 VIN
344 1 8 0.000000 50.771999 59.277000 59.977001 # HO1 VIN
345 1 9 0.000000 50.491001 56.932999 59.117001 # HT VIN
346 1 3 0.000000 49.789001 57.752998 58.875000 # C1 VIN
347 1 4 0.000000 48.987000 58.094002 60.160000 # C2* VIN
348 1 1 0.000000 49.173000 57.287998 58.153000 # 1H1C VIN
349 1 6 0.000000 48.146000 58.876999 59.901001 # HC2 VIN
350 1 11 0.000000 49.820000 58.676998 61.164001 # O1 VIN
351 1 8 0.000000 50.132000 58.007000 61.707001 # HO1 VIN
352 1 9 0.000000 47.300999 56.667999 60.084000 # HT VIN
353 1 3 0.000000 48.182999 56.952999 60.778000 # C1 VIN
354 1 4 0.000000 48.990002 55.666000 61.070000 # C2* VIN
355 1 1 0.000000 47.602001 57.289001 61.666000 # 1H1C VIN
356 1 6 0.000000 49.349998 55.256001 60.084000 # HC2 VIN
357 1 11 0.000000 48.074001 54.730000 61.687000 # O1 VIN
358 1 8 0.000000 47.494999 55.348000 62.222000 # HO1 VIN
359 1 9 0.000000 49.931999 56.507000 62.737000 # HT VIN
360 1 3 0.000000 50.262001 55.797001 61.987999 # C1 VIN
361 1 4 0.000000 50.771999 54.592999 62.733002 # C2* VIN
362 1 1 0.000000 51.104000 56.310001 61.387001 # 1H1C VIN
363 1 6 0.000000 49.941002 54.152000 63.403000 # HC2 VIN
364 1 11 0.000000 51.938999 54.973999 63.417000 # O1 VIN
365 1 8 0.000000 52.464001 54.129002 63.636002 # HO1 VIN
366 1 9 0.000000 52.116001 53.764000 61.215000 # HT VIN
367 1 3 0.000000 51.261002 53.438000 61.839001 # C1 VIN
368 1 4 0.000000 51.527000 52.119999 62.613998 # C2* VIN
369 1 1 0.000000 50.570000 53.223999 61.018002 # 1H1C VIN
370 1 6 0.000000 50.672001 51.818001 63.215000 # HC2 VIN
371 1 11 0.000000 52.606998 52.255001 63.537998 # O1 VIN
372 1 8 0.000000 52.980000 51.403999 63.659000 # HO1 VIN
373 1 9 0.000000 52.450001 51.205002 60.910999 # HT VIN
374 1 3 0.000000 51.791000 50.914001 61.723000 # C1 VIN
375 1 4 0.000000 52.396000 49.646000 62.369999 # C2* VIN
376 1 1 0.000000 50.839001 50.641998 61.213001 # 1H1C VIN
377 1 6 0.000000 53.341000 49.831001 62.869999 # HC2 VIN
378 1 11 0.000000 52.733002 48.823002 61.306999 # O1 VIN
379 1 8 0.000000 51.870998 48.730999 60.870998 # HO1 VIN
380 1 9 0.000000 50.680000 48.363998 62.873001 # HT VIN
381 1 3 0.000000 51.515999 48.883999 63.419998 # C1 VIN
382 1 4 0.000000 52.386002 47.756001 64.025002 # C2* VIN
383 1 1 0.000000 51.162998 49.603001 64.184998 # 1H1C VIN
384 1 6 0.000000 53.250999 48.199001 64.531998 # HC2 VIN
385 1 11 0.000000 52.956001 46.935001 63.026001 # O1 VIN
386 1 8 0.000000 53.174999 47.637001 62.414001 # HO1 VIN
387 1 9 0.000000 50.679001 46.584000 64.795998 # HT VIN
388 1 3 0.000000 51.640999 46.971001 65.156998 # C1 VIN
389 1 4 0.000000 52.426998 45.817001 65.741997 # C2* VIN
390 1 1 0.000000 51.280998 47.654999 65.959000 # 1H1C VIN
391 1 6 0.000000 52.816002 45.308998 64.821999 # HC2 VIN
392 1 11 0.000000 53.573002 46.404999 66.484001 # O1 VIN
393 1 8 0.000000 54.196999 46.583000 65.778999 # HO1 VIN
394 1 9 0.000000 52.054001 43.743000 66.551003 # HT VIN
395 1 3 0.000000 51.580002 44.702000 66.523003 # C1 VIN
396 1 4 0.000000 51.167999 45.152000 67.888000 # C2* VIN
397 1 1 0.000000 50.678001 44.618000 65.962997 # 1H1C VIN
398 1 6 0.000000 51.062000 46.292000 67.998001 # HC2 VIN
399 1 11 0.000000 52.262001 44.875999 68.725998 # O1 VIN
400 1 8 0.000000 52.971001 45.359001 68.280998 # HO1 VIN
401 1 9 0.000000 50.137001 44.266998 69.509003 # HT VIN
402 1 3 0.000000 49.922001 44.480000 68.469002 # C1 VIN
403 1 4 0.000000 48.640999 45.217999 68.140999 # C2* VIN
404 1 1 0.000000 49.823002 43.398998 68.162003 # 1H1C VIN
405 1 6 0.000000 48.771999 46.308998 67.882004 # HC2 VIN
406 1 11 0.000000 47.751999 45.078999 69.223999 # O1 VIN
407 1 8 0.000000 46.888000 45.388000 68.925003 # HO1 VIN
408 1 9 0.000000 47.162998 43.695999 67.237999 # HT VIN
409 1 3 0.000000 47.778000 44.610001 66.964996 # C1 VIN
410 1 4 0.000000 46.737000 45.555000 66.373001 # C2* VIN
411 1 1 0.000000 48.459999 44.271000 66.181000 # 1H1C VIN
412 1 6 0.000000 47.261002 46.453999 66.125999 # HC2 VIN
413 1 11 0.000000 45.720001 45.851002 67.319000 # O1 VIN
414 1 8 0.000000 45.147999 46.389999 66.752998 # HO1 VIN
415 1 9 0.000000 45.432999 43.867001 65.549004 # HT VIN
416 1 3 0.000000 46.071999 44.813999 65.141998 # C1 VIN
417 1 4 0.000000 45.080002 45.646000 64.320999 # C2* VIN
418 1 1 0.000000 46.926998 44.499001 64.487999 # 1H1C VIN
419 1 6 0.000000 44.228001 46.073002 64.911003 # HC2 VIN
420 1 11 0.000000 45.852001 46.698002 63.681000 # O1 VIN
421 1 8 0.000000 45.418999 46.888000 62.860001 # HO1 VIN
422 1 9 0.000000 43.879002 43.988998 63.782001 # HT VIN
423 1 3 0.000000 44.430000 44.744999 63.251999 # C1 VIN
424 1 4 0.000000 43.430000 45.480999 62.367001 # C2* VIN
425 1 1 0.000000 45.233002 44.200001 62.688999 # 1H1C VIN
426 1 6 0.000000 44.056000 46.155998 61.713001 # HC2 VIN
427 1 11 0.000000 42.462002 46.129002 63.133999 # O1 VIN
428 1 8 0.000000 41.981998 45.452000 63.618999 # HO1 VIN
429 1 9 0.000000 43.487000 43.862000 60.812000 # HT VIN
430 1 3 0.000000 42.696999 44.481998 61.356998 # C1 VIN
431 1 4 0.000000 41.523998 43.587002 61.824001 # C2* VIN
432 1 1 0.000000 42.355000 45.209999 60.553001 # 1H1C VIN
433 1 6 0.000000 40.661999 44.243000 62.120998 # HC2 VIN
434 1 11 0.000000 42.013000 42.766998 62.902000 # O1 VIN
435 1 8 0.000000 41.243000 42.525002 63.424000 # HO1 VIN
436 1 9 0.000000 41.936001 42.504002 59.993999 # HT VIN
437 1 3 0.000000 41.041000 42.698002 60.633999 # C1 VIN
438 1 4 0.000000 40.313999 41.466000 61.117001 # C2* VIN
439 1 1 0.000000 40.411999 43.409000 60.049999 # 1H1C VIN
440 1 6 0.000000 39.666000 41.778999 61.931000 # HC2 VIN
441 1 11 0.000000 41.250999 40.535000 61.671001 # O1 VIN
442 1 8 0.000000 42.119999 40.976002 61.734001 # HO1 VIN
443 1 9 0.000000 40.172001 40.466999 59.195999 # HT VIN
444 1 3 0.000000 39.532001 40.745998 60.026001 # C1 VIN
445 1 4 0.000000 38.605999 39.575001 60.390999 # C2* VIN
446 1 1 0.000000 38.866001 41.515999 59.507000 # 1H1C VIN
447 1 6 0.000000 39.134998 38.826000 61.102001 # HC2 VIN
448 1 11 0.000000 38.206001 38.931000 59.157001 # O1 VIN
449 1 8 0.000000 37.356998 39.313000 58.897999 # HO1 VIN
450 1 9 0.000000 36.669998 39.098000 61.116001 # HT VIN
451 1 3 0.000000 37.332001 40.006001 61.089001 # C1 VIN
452 1 4 0.000000 37.426998 40.311001 62.632999 # C2* VIN
453 1 1 0.000000 36.818001 40.820000 60.515999 # 1H1C VIN
454 1 6 0.000000 37.773998 41.360001 62.750000 # HC2 VIN
455 1 11 0.000000 38.231998 39.355000 63.241001 # O1 VIN
456 1 8 0.000000 38.486000 38.772999 62.567001 # HO1 VIN
457 1 9 0.000000 35.483002 39.255001 63.082001 # HT VIN
458 1 3 0.000000 35.973000 40.235001 63.313999 # C1 VIN
459 1 4 0.000000 36.076000 40.487999 64.844002 # C2* VIN
460 1 1 0.000000 35.362999 41.084999 62.759998 # 1H1C VIN
461 1 6 0.000000 36.918999 39.891998 65.252998 # HC2 VIN
462 1 11 0.000000 36.428001 41.844002 65.069000 # O1 VIN
463 1 8 0.000000 37.178001 42.050999 64.526001 # HO1 VIN
464 1 9 0.000000 34.087002 40.926998 65.262001 # HT VIN
465 1 3 0.000000 34.834999 40.203999 65.613998 # C1 VIN
466 1 4 0.000000 34.250999 38.800999 65.599998 # C2* VIN
467 1 1 0.000000 35.063000 40.293999 66.690002 # 1H1C VIN
468 1 6 0.000000 34.019001 38.519001 64.612999 # HC2 VIN
469 1 11 0.000000 32.974998 38.910000 66.277000 # O1 VIN
470 1 8 0.000000 33.002998 39.543999 67.000000 # HO1 VIN
471 1 9 0.000000 35.066002 37.921001 67.363998 # HT VIN
472 1 3 0.000000 35.035999 37.713001 66.280998 # C1 VIN
473 1 4 0.000000 34.541000 36.308998 65.949997 # C2* VIN
474 1 1 0.000000 36.115002 37.881001 66.025002 # 1H1C VIN
475 1 6 0.000000 33.433998 36.224998 65.980003 # HC2 VIN
476 1 11 0.000000 34.987000 36.063999 64.649002 # O1 VIN
477 1 8 0.000000 35.695999 36.682999 64.389000 # HO1 VIN
478 1 9 0.000000 36.176998 35.366001 67.037003 # HT VIN
479 1 3 0.000000 35.082001 35.198002 66.876999 # C1 VIN
480 1 4 0.000000 34.398998 35.013000 68.236000 # C2* VIN
481 1 1 0.000000 34.987999 34.308998 66.320000 # 1H1C VIN
482 1 6 0.000000 34.396000 35.893002 68.862000 # HC2 VIN
483 1 11 0.000000 35.080002 33.973999 68.968002 # O1 VIN
484 1 8 0.000000 34.667999 33.206001 68.515999 # HO1 VIN
485 1 9 0.000000 32.308998 35.389000 67.904999 # HT VIN
486 1 3 0.000000 32.921001 34.541000 68.223999 # C1 VIN
487 1 4 0.000000 32.416000 33.299000 67.473000 # C2* VIN
488 1 1 0.000000 32.687000 34.412998 69.292999 # 1H1C VIN
489 1 6 0.000000 32.355000 33.534000 66.363998 # HC2 VIN
490 1 11 0.000000 33.168999 32.151001 67.626999 # O1 VIN
491 1 8 0.000000 32.578999 31.474001 67.907997 # HO1 VIN
492 1 9 0.000000 30.320000 33.932999 67.680000 # HT VIN
493 1 3 0.000000 30.969999 33.051998 67.878998 # C1 VIN
494 1 4 0.000000 30.256001 31.896999 67.189003 # C2* VIN