LAMMPS (23 Jun 2022 - Update 1)
OMP_NUM_THREADS environment is not set. Defaulting to 1 thread. (src/comm.cpp:98)
  using 1 OpenMP thread(s) per MPI task
Loaded 1 plugins from C:\Users\HP\AppData\Local\LAMMPS 64-bit 23Jun2022\plugins
# Initialization
units			real
dimension		3
processors		* * *
boundary		p p p
atom_style		full
pair_style		lj/cut 10.0
bond_style		harmonic
angle_style 	harmonic
read_data		PVA4_O10.data
Reading data file ...
  orthogonal box = (-2.047001 -5.388001 -5.213) to (97.952999 94.611999 94.787)
  1 by 1 by 1 MPI processor grid
  reading atoms ...
  2828 atoms
  scanning bonds ...
  3 = max bonds/atom
  scanning angles ...
  6 = max angles/atom
  reading bonds ...
  2814 bonds
  reading angles ...
  5200 angles
Finding 1-2 1-3 1-4 neighbors ...
  special bond factors lj:    0        0        0       
  special bond factors coul:  0        0        0       
     4 = max # of 1-2 neighbors
     7 = max # of 1-3 neighbors
    14 = max # of 1-4 neighbors
    18 = max # of special neighbors
  special bonds CPU = 0.003 seconds
  read_data CPU = 0.035 seconds

#output

thermo			100
thermo_style	custom step temp pe press vol lx density

#intial minimization
minimize		1.0e-5 1.0e-5 10000 10000
WARNING: Using 'neigh_modify every 1 delay 0 check yes' setting during minimization (src/min.cpp:187)
Generated 45 of 45 mixed pair_coeff terms from geometric mixing rule
Neighbor list info ...
  update every 1 steps, delay 0 steps, check yes
  max neighbors/atom: 2000, page size: 100000
  master list distance cutoff = 12
  ghost atom cutoff = 12
  binsize = 6, bins = 17 17 17
  1 neighbor lists, perpetual/occasional/extra = 1 0 0
  (1) pair lj/cut, perpetual
      attributes: half, newton on
      pair build: half/bin/newton
      stencil: half/bin/3d
      bin: standard
Per MPI rank memory allocation (min/avg/max) = 10.68 | 10.68 | 10.68 Mbytes
   Step          Temp          PotEng         Press          Volume           Lx          Density    
         0   0              2295.5087     -532.12708      1000000        100            0.029805125  
       100   0             -148.9715      -21.336285      1000000        100            0.029805125  
       200   0             -213.74999     -21.08387       1000000        100            0.029805125  
       300   0             -252.82556     -6.9862897      1000000        100            0.029805125  
       400   0             -283.0732      -6.930387       1000000        100            0.029805125  
       500   0             -302.20846     -4.0680788      1000000        100            0.029805125  
       600   0             -319.70336     -5.3445091      1000000        100            0.029805125  
       700   0             -331.64803     -4.6566737      1000000        100            0.029805125  
       800   0             -340.48926     -4.6441465      1000000        100            0.029805125  
       900   0             -348.11688     -5.8621643      1000000        100            0.029805125  
      1000   0             -357.19016     -5.1237917      1000000        100            0.029805125  
      1100   0             -368.68066     -4.9117183      1000000        100            0.029805125  
      1200   0             -380.43903     -4.264498       1000000        100            0.029805125  
      1300   0             -387.53769     -5.3481076      1000000        100            0.029805125  
      1400   0             -395.30219     -5.9976744      1000000        100            0.029805125  
      1500   0             -404.93377     -5.3146122      1000000        100            0.029805125  
      1600   0             -412.76164     -4.7704964      1000000        100            0.029805125  
      1700   0             -421.27275     -4.7283393      1000000        100            0.029805125  
      1800   0             -427.78089     -5.6465602      1000000        100            0.029805125  
      1900   0             -432.68842     -5.2753459      1000000        100            0.029805125  
      2000   0             -437.73953     -4.8729045      1000000        100            0.029805125  
      2100   0             -442.20048     -3.9636716      1000000        100            0.029805125  
      2200   0             -445.98707     -3.9003176      1000000        100            0.029805125  
      2300   0             -448.35708     -3.6983478      1000000        100            0.029805125  
      2400   0             -450.71243     -3.2188492      1000000        100            0.029805125  
      2500   0             -453.68226     -4.0431963      1000000        100            0.029805125  
      2600   0             -456.62936     -3.8337881      1000000        100            0.029805125  
      2700   0             -459.71489     -3.9152885      1000000        100            0.029805125  
      2800   0             -463.51427     -3.077958       1000000        100            0.029805125  
      2900   0             -467.06308     -5.5200439      1000000        100            0.029805125  
      3000   0             -471.24143     -6.6963838      1000000        100            0.029805125  
      3100   0             -475.14366     -4.8870879      1000000        100            0.029805125  
      3200   0             -479.2824      -5.6842871      1000000        100            0.029805125  
      3300   0             -482.66936     -4.0179874      1000000        100            0.029805125  
      3400   0             -485.71837     -4.324426       1000000        100            0.029805125  
      3500   0             -489.68606     -5.4308088      1000000        100            0.029805125  
      3600   0             -494.14932     -3.2541968      1000000        100            0.029805125  
      3700   0             -498.84293     -4.1047394      1000000        100            0.029805125  
      3800   0             -503.00862     -4.4962079      1000000        100            0.029805125  
      3900   0             -506.61111     -4.6996223      1000000        100            0.029805125  
      4000   0             -510.21956     -2.6961939      1000000        100            0.029805125  
      4100   0             -512.88923     -3.6714022      1000000        100            0.029805125  
      4200   0             -514.62166     -4.4434196      1000000        100            0.029805125  
      4300   0             -516.75711     -3.909101       1000000        100            0.029805125  
      4400   0             -518.5067      -3.9003787      1000000        100            0.029805125  
      4500   0             -519.64886     -4.3133188      1000000        100            0.029805125  
      4600   0             -520.7276      -3.8687389      1000000        100            0.029805125  
      4700   0             -521.79062     -3.7007612      1000000        100            0.029805125  
      4800   0             -523.32508     -4.012209       1000000        100            0.029805125  
      4900   0             -524.46043     -3.4923749      1000000        100            0.029805125  
      5000   0             -525.63115     -3.469804       1000000        100            0.029805125  
Loop time of 34.7213 on 1 procs for 5000 steps with 2828 atoms

99.5% CPU use with 1 MPI tasks x 1 OpenMP threads

Minimization stats:
  Stopping criterion = max force evaluations
  Energy initial, next-to-last, final = 
      2295.50866411536  -525.616528491515  -525.631153539395
  Force two-norm initial, final = 1913.5169 5.7378667
  Force max component initial, final = 122.69172 1.3976196
  Final line search alpha, max atom move = 0.01234464 0.017253111
  Iterations, force evaluations = 5000 10001

MPI task timing breakdown:
Section |  min time  |  avg time  |  max time  |%varavg| %total
---------------------------------------------------------------
Pair    | 30.579     | 30.579     | 30.579     |   0.0 | 88.07
Bond    | 3.4142     | 3.4142     | 3.4142     |   0.0 |  9.83
Neigh   | 0.24439    | 0.24439    | 0.24439    |   0.0 |  0.70
Comm    | 0.057864   | 0.057864   | 0.057864   |   0.0 |  0.17
Output  | 0.021786   | 0.021786   | 0.021786   |   0.0 |  0.06
Modify  | 0          | 0          | 0          |   0.0 |  0.00
Other   |            | 0.4042     |            |       |  1.16

Nlocal:           2828 ave        2828 max        2828 min
Histogram: 1 0 0 0 0 0 0 0 0 0
Nghost:            511 ave         511 max         511 min
Histogram: 1 0 0 0 0 0 0 0 0 0
Neighs:         193877 ave      193877 max      193877 min
Histogram: 1 0 0 0 0 0 0 0 0 0

Total # of neighbors = 193877
Ave neighs/atom = 68.556223
Ave special neighs/atom = 11.582744
Neighbor list builds = 57
Dangerous builds = 0

timestep 1
# nvt for 200 ps
fix			1 all nvt temp 300 300 100
run			200000
Generated 45 of 45 mixed pair_coeff terms from geometric mixing rule
Per MPI rank memory allocation (min/avg/max) = 9.552 | 9.552 | 9.552 Mbytes
   Step          Temp          PotEng         Press          Volume           Lx          Density    
      5000   0             -525.63115     -3.469804       1000000        100            0.029805125  
      5100   0.025021366   -525.82096     -3.4232243      1000000        100            0.029805125  
      5200   0.069937915   -526.05087     -3.3811713      1000000        100            0.029805125  
      5300   0.13054932    -526.21903     -3.6786993      1000000        100            0.029805125  
      5400   0.22520536    -526.36151     -3.9442478      1000000        100            0.029805125  
      5500   0.36892191    -526.41001     -3.713581       1000000        100            0.029805125  
      5600   0.59599668    -526.35163     -4.4387306      1000000        100            0.029805125  
      5700   0.98552596    -526.29555     -4.5811426      1000000        100            0.029805125  
      5800   1.6190449     -525.93235     -3.8855498      1000000        100            0.029805125  
      5900   2.5801436     -524.60817     -2.0755609      1000000        100            0.029805125  
      6000   4.2751073     -523.24608     -2.2795148      1000000        100            0.029805125  
      6100   7.177458      -521.05168     -1.0163918      1000000        100            0.029805125  
      6200   12.204631     -517.44066      0.23154565     1000000        100            0.029805125  
      6300   20.34741      -508.87832      0.73871832     1000000        100            0.029805125  
      6400   35.348838     -502.14816      1.8605694      1000000        100            0.029805125  
      6500   59.802471     -484.07099      8.2262969      1000000        100            0.029805125  
      6600   100.13457     -455.67098      18.103345      1000000        100            0.029805125  
      6700   159.74112     -399.87691      26.882877      1000000        100            0.029805125  
      6800   244.33645     -362.82452      40.799154      1000000        100            0.029805125  
      6900   322.68046     -282.60079      65.504111      1000000        100            0.029805125  
      7000   338.32338     -198.27048      52.949531      1000000        100            0.029805125  
      7100   297.27104     -231.80437      33.489548      1000000        100            0.029805125  
      7200   267.07291     -204.6382       44.452418      1000000        100            0.029805125  
      7300   289.94453     -168.12835      47.513258      1000000        100            0.029805125  
      7400   324.77059     -110.20555      60.015032      1000000        100            0.029805125  
      7500   314.088       -64.529903      76.112028      1000000        100            0.029805125  
      7600   279.76976     -35.598006      63.173081      1000000        100            0.029805125  
      7700   278.50041     -14.002753      29.278117      1000000        100            0.029805125  
      7800   305.55612      60.13838       50.668603      1000000        100            0.029805125  
      7900   317.83208      148.1453       67.850625      1000000        100            0.029805125  
      8000   293.48042      250.78231      9.6142537      1000000        100            0.029805125  
      8100   287.96022      215.87738      59.120834      1000000        100            0.029805125  
      8200   295.21487      235.15194      36.712304      1000000        100            0.029805125  
      8300   309.13081      268.66406      54.767821      1000000        100            0.029805125  
      8400   300.75117      372.84577      57.034041      1000000        100            0.029805125  
      8500   298.33843      373.72722      18.991356      1000000        100            0.029805125  
      8600   293.2982       427.56022      40.98152       1000000        100            0.029805125  
      8700   300.78092      445.60135      14.125887      1000000        100            0.029805125  
      8800   305.6851       469.39912      14.915707      1000000        100            0.029805125  
      8900   298.7623       512.08398      88.376021      1000000        100            0.029805125  
      9000   291.87639      565.39192      58.207086      1000000        100            0.029805125  
      9100   297.30033      629.32369      68.481412      1000000        100            0.029805125  
      9200   304.70207      734.51561      32.117918      1000000        100            0.029805125  
      9300   316.26626      710.83639      44.10222       1000000        100            0.029805125  
      9400   300.22325      709.89638      5.6109198      1000000        100            0.029805125  
      9500   288.27814      706.39823      30.909623      1000000        100            0.029805125  
      9600   285.99123      805.38059      59.690909      1000000        100            0.029805125  
      9700   308.06167      850.19665      51.719793      1000000        100            0.029805125  
      9800   313.91985      922.6375       57.701397      1000000        100            0.029805125  
      9900   300.83312      918.69903      1.8815364      1000000        100            0.029805125  
     10000   286.33026      884.7246       35.799014      1000000        100            0.029805125  
     10100   290.48088      863.82836      24.712642      1000000        100            0.029805125  
     10200   299.8429       956.73169      4.8230764      1000000        100            0.029805125  
     10300   310.03979      1043.2812      39.158108      1000000        100            0.029805125  
     10400   304.5253       1092.1752      14.515378      1000000        100            0.029805125  
     10500   301.93028      981.00628      35.118094      1000000        100            0.029805125  
     10600   295.51619      936.93256      62.212163      1000000        100            0.029805125  
     10700   289.65197      1018.2485      7.2553678      1000000        100            0.029805125  
     10800   303.55181      1061.944       0.98045447     1000000        100            0.029805125  
     10900   306.80567      1160.4964      71.584568      1000000        100            0.029805125  
     11000   303.51755      1154.5922     -16.929057      1000000        100            0.029805125  
     11100   297.37893      1101.4719      10.858437      1000000        100            0.029805125  
     11200   289.5069       1151.8342     -28.740535      1000000        100            0.029805125  
     11300   299.86574      1179.4875     -8.7488131      1000000        100            0.029805125  
     11400   311.16963      1195.5891      2.718921       1000000        100            0.029805125  
     11500   309.40598      1196.051      -0.36302028     1000000        100            0.029805125  
     11600   298.15563      1211.8196      0.94127057     1000000        100            0.029805125  
     11700   297.85906      1167.8935     -31.770067      1000000        100            0.029805125  
     11800   294.47793      1198.9523     -24.481901      1000000        100            0.029805125  
     11900   297.05007      1222.8293      40.131078      1000000        100            0.029805125  
     12000   303.10558      1233.9522      2.5747973      1000000        100            0.029805125  
     12100   304.96018      1211.4851      6.4338646      1000000        100            0.029805125  
     12200   294.31844      1204.7782     -2.3620864      1000000        100            0.029805125  
     12300   294.24975      1186.6151     -28.969096      1000000        100            0.029805125  
     12400   301.2182       1213.9362     -5.6759331      1000000        100            0.029805125  
     12500   303.21576      1280.4917      11.55412       1000000        100            0.029805125  
     12600   302.79698      1261.4903     -27.881466      1000000        100            0.029805125  
     12700   295.80953      1216.985       24.692334      1000000        100            0.029805125  
     12800   294.77975      1144.4729     -5.0300179      1000000        100            0.029805125  
     12900   295.61602      1158.6846     -9.47963        1000000        100            0.029805125  
     13000   300.3586       1226.8316     -29.569438      1000000        100            0.029805125  
     13100   312.52949      1206.2104      19.732695      1000000        100            0.029805125  
     13200   297.61971      1292.4735     -27.901785      1000000        100            0.029805125  
     13300   300.30345      1198.5724      36.424801      1000000        100            0.029805125  
     13400   295.70224      1200.8927     -3.8727065      1000000        100            0.029805125  
     13500   292.65985      1263.374      -6.9770861      1000000        100            0.029805125  
     13600   307.76172      1235.3994      1.7479877      1000000        100            0.029805125  
     13700   309.54551      1277.9803     -6.7601039      1000000        100            0.029805125  
     13800   296.06383      1342.0522     -28.19803       1000000        100            0.029805125  
     13900   299.76786      1258.0398      42.336971      1000000        100            0.029805125  
     14000   292.6281       1320.328      -8.2981181      1000000        100            0.029805125  
     14100   303.88026      1279.2031     -0.73854054     1000000        100            0.029805125  
     14200   298.9808       1350.0757      23.613286      1000000        100            0.029805125  
     14300   296.44616      1363.4461     -51.486511      1000000        100            0.029805125  
     14400   305.02629      1278.943      -10.949613      1000000        100            0.029805125  
     14500   300.83854      1276.7637     -8.6056091      1000000        100            0.029805125  
     14600   295.49474      1292.7201     -25.334502      1000000        100            0.029805125  
     14700   299.37545      1292.4692      38.240375      1000000        100            0.029805125  
     14800   305.70812      1291.2405     -25.038394      1000000        100            0.029805125  
     14900   303.43887      1320.8185     -18.97894       1000000        100            0.029805125  
     15000   294.03967      1335.6201      21.450388      1000000        100            0.029805125  
     15100   295.87525      1274.9523      33.566151      1000000        100            0.029805125  
     15200   300.44722      1277.3054      34.892404      1000000        100            0.029805125  
     15300   303.2595       1345.5996      28.119705      1000000        100            0.029805125  
     15400   307.94007      1357.224       21.512108      1000000        100            0.029805125  
     15500   304.15449      1343.2086     -10.567413      1000000        100            0.029805125  
     15600   299.62605      1305.7201      1.8046643      1000000        100            0.029805125  
     15700   292.56657      1332.1622     -53.136395      1000000        100            0.029805125  
     15800   299.82272      1338.6653     -3.3177042      1000000        100            0.029805125  
     15900   312.23418      1333.9248      4.3672555      1000000        100            0.029805125  
     16000   310.13324      1351.9349      39.999967      1000000        100            0.029805125  
     16100   305.46139      1318.6541      58.076445      1000000        100            0.029805125  
     16200   295.07925      1337.3711      9.8629082      1000000        100            0.029805125  
     16300   294.97221      1346.8786      10.756251      1000000        100            0.029805125  
     16400   303.27806      1353.7143      17.451729      1000000        100            0.029805125  
     16500   303.29169      1440.7849      28.81154       1000000        100            0.029805125  
     16600   314.84117      1359.8022     -10.871509      1000000        100            0.029805125  
     16700   296.31342      1387.0351     -82.486647      1000000        100            0.029805125  
     16800   288.31092      1360.825       39.778262      1000000        100            0.029805125  
     16900   291.57347      1380.218       23.493116      1000000        100            0.029805125  
     17000   302.12414      1413.159       28.197747      1000000        100            0.029805125  
     17100   308.15266      1441.9806     -34.926972      1000000        100            0.029805125  
     17200   301.90602      1450.4862     -73.16079       1000000        100            0.029805125  
     17300   298.55367      1382.4502     -18.046309      1000000        100            0.029805125  
     17400   293.8631       1336.205      -22.731549      1000000        100            0.029805125  
     17500   294.42057      1319.4408      9.5942797      1000000        100            0.029805125  
     17600   298.94827      1364.1766     -14.408528      1000000        100            0.029805125  
     17700   312.24664      1338.1259      44.545071      1000000        100            0.029805125  
     17800   303.7672       1385.0094      61.639063      1000000        100            0.029805125  
     17900   298.2023       1340.69        21.085126      1000000        100            0.029805125  
     18000   294.39701      1301.5374     -33.542949      1000000        100            0.029805125  
     18100   291.13947      1356.5559      10.155671      1000000        100            0.029805125  
     18200   298.40959      1388.5155      8.4631073      1000000        100            0.029805125  
     18300   302.03405      1411.2388      15.399348      1000000        100            0.029805125  
     18400   300.38589      1377.095       45.266885      1000000        100            0.029805125  
     18500   298.62344      1293.1148     -6.0516066      1000000        100            0.029805125  
     18600   293.3756       1266.1638     -28.388498      1000000        100            0.029805125  
     18700   296.69844      1287.6045      44.934072      1000000        100            0.029805125  
     18800   311.50323      1268.0931      14.512362      1000000        100            0.029805125  
     18900   311.87784      1304.5101      0.47512134     1000000        100            0.029805125  
     19000   297.66643      1335.1593      7.1866885      1000000        100            0.029805125  
     19100   295.21076      1278.2281      26.58476       1000000        100            0.029805125  
     19200   294.03044      1287.7285     -2.4634537      1000000        100            0.029805125  
     19300   302.06909      1300.6605     -29.021727      1000000        100            0.029805125  
     19400   305.25039      1334.4995     -8.1124237      1000000        100            0.029805125  
     19500   299.93136      1364.6497     -20.533249      1000000        100            0.029805125  
     19600   291.88915      1400.8459     -64.720573      1000000        100            0.029805125  
     19700   297.67337      1341.4208     -49.359601      1000000        100            0.029805125  
     19800   299.8988       1348.4958      26.729688      1000000        100            0.029805125  
     19900   301.59218      1362.1705     -33.350532      1000000        100            0.029805125  
     20000   300.05234      1379.7341     -76.607801      1000000        100            0.029805125  
     20100   302.75721      1319.5024      3.1117359      1000000        100            0.029805125  
     20200   298.24706      1323.5451     -9.9689517      1000000        100            0.029805125  
     20300   302.04427      1291.5404     -28.046554      1000000        100            0.029805125  
     20400   299.34301      1338.1803      18.235093      1000000        100            0.029805125  
     20500   303.10143      1325.2219      19.912563      1000000        100            0.029805125  
     20600   295.95409      1364.0931     -24.999355      1000000        100            0.029805125  
     20700   300.7656       1304.7793     -13.387953      1000000        100            0.029805125  
     20800   304.18885      1285.211       38.273535      1000000        100            0.029805125  
     20900   309.38766      1250.1914     -11.81898       1000000        100            0.029805125  
     21000   301.25731      1297.5575     -40.176207      1000000        100            0.029805125  
     21100   303.16395      1257.6032     -54.958009      1000000        100            0.029805125  
     21200   302.57266      1269.6334      7.4058879      1000000        100            0.029805125  
     21300   302.16793      1324.8065     -2.4834054      1000000        100            0.029805125  
     21400   310.87732      1294.7742     -10.959053      1000000        100            0.029805125  
     21500   300.17053      1362.3245     -37.776981      1000000        100            0.029805125  
     21600   299.7398       1281.5585     -20.980309      1000000        100            0.029805125  
     21700   296.00637      1264.4374     -9.1199407      1000000        100            0.029805125  
     21800   297.06937      1297.6963      28.724772      1000000        100            0.029805125  
     21900   302.12841      1354.6477      24.913254      1000000        100            0.029805125  
     22000   305.31573      1373.4425      4.8853031      1000000        100            0.029805125  
     22100   306.28149      1313.9526     -12.795038      1000000        100            0.029805125  
     22200   291.33036      1327.6156     -40.759141      1000000        100            0.029805125  
     22300   294.01234      1255.3441     -13.618412      1000000        100            0.029805125  
     22400   294.03521      1312.85       -14.797106      1000000        100            0.029805125  
     22500   302.06526      1355.5171     -19.768165      1000000        100            0.029805125  
     22600   304.78659      1385.4801      35.429044      1000000        100            0.029805125  
     22700   306.78572      1332.1592     -0.53074808     1000000        100            0.029805125  
     22800   295.18694      1356.9         24.083706      1000000        100            0.029805125  
     22900   295.72984      1320.5383      63.658875      1000000        100            0.029805125  
     23000   295.09688      1349.06        43.017389      1000000        100            0.029805125  
     23100   302.4008       1354.3206     -50.02501       1000000        100            0.029805125  
     23200   306.13371      1366.6967     -36.120275      1000000        100            0.029805125  
     23300   300.3709       1377.7723      15.952669      1000000        100            0.029805125  
     23400   301.0075       1305.6856     -22.687475      1000000        100            0.029805125  
     23500   298.66789      1296.8524     -20.016622      1000000        100            0.029805125  
     23600   295.45848      1353.0928     -37.158958      1000000        100            0.029805125  
     23700   307.68918      1312.5648     -7.2569194      1000000        100            0.029805125  
     23800   297.7909       1417.7726      51.361235      1000000        100            0.029805125  
     23900   298.6557       1370.3261      37.12528       1000000        100            0.029805125  
     24000   307.33976      1245.0015     -41.448024      1000000        100            0.029805125  
     24100   298.10411      1293.3958     -10.384641      1000000        100            0.029805125  
     24200   307.05806      1229.8462      19.780057      1000000        100            0.029805125  
     24300   298.24571      1320.2021     -16.643639      1000000        100            0.029805125  
     24400   301.75107      1295.0581      58.009069      1000000        100            0.029805125  
     24500   300.00175      1326.9969      39.523097      1000000        100            0.029805125  
     24600   304.64314      1306.3025     -44.969163      1000000        100            0.029805125  
     24700   299.74974      1338.5366     -12.234916      1000000        100            0.029805125  
     24800   302.86124      1309.0466     -17.60187       1000000        100            0.029805125  
     24900   298.9288       1351.7995      22.933454      1000000        100            0.029805125  
     25000   301.1296       1342.3327     -14.12483       1000000        100            0.029805125  
     25100   301.36285      1323.0246      13.722789      1000000        100            0.029805125  
     25200   297.21432      1330.386       7.6985294      1000000        100            0.029805125  
     25300   306.08997      1260.5296      10.291473      1000000        100            0.029805125  
     25400   301.79354      1301.2681      7.1038685      1000000        100            0.029805125  
     25500   298.32388      1332.9075     -35.330591      1000000        100            0.029805125  
     25600   299.97958      1328.3686     -29.774361      1000000        100            0.029805125  
     25700   303.47033      1284.8218      8.1854502      1000000        100            0.029805125  
     25800   298.86962      1293.948       21.727068      1000000        100            0.029805125  
     25900   296.83183      1278.7319      5.6751524      1000000        100            0.029805125  
     26000   295.58364      1288.6019      25.687739      1000000        100            0.029805125  
     26100   302.62459      1243.5481      40.676317      1000000        100            0.029805125  
     26200   300.4573       1234.4127     -24.426362      1000000        100            0.029805125  
     26300   296.1922       1274.4784     -53.692868      1000000        100            0.029805125  
     26400   298.3372       1281.7491      25.557378      1000000        100            0.029805125  
     26500   301.6105       1280.663      -63.458433      1000000        100            0.029805125  
     26600   301.7665       1284.4129     -37.599831      1000000        100            0.029805125  
     26700   301.72416      1297.2944      15.696604      1000000        100            0.029805125  
     26800   295.5919       1358.7422      22.63309       1000000        100            0.029805125  
     26900   302.50813      1313.8631     -12.904376      1000000        100            0.029805125  
     27000   308.21868      1266.7861     -47.477045      1000000        100            0.029805125  
     27100   297.26886      1326.4139     -50.269928      1000000        100            0.029805125  
     27200   304.22896      1238.4675     -15.316273      1000000        100            0.029805125  
     27300   299.54895      1285.3901      18.388276      1000000        100            0.029805125  
     27400   303.77269      1267.6853      9.7929983      1000000        100            0.029805125  
     27500   303.87543      1232.7718     -0.89519584     1000000        100            0.029805125  
     27600   295.98888      1258.6126      17.284081      1000000        100            0.029805125  
     27700   299.46835      1244.1187      23.86668       1000000        100            0.029805125  
     27800   303.86833      1260.4351      6.0706973      1000000        100            0.029805125  
     27900   300.84964      1307.0276      40.852358      1000000        100            0.029805125  
     28000   299.54365      1292.7575     -16.583999      1000000        100            0.029805125  
     28100   300.50801      1265.6346     -27.266895      1000000        100            0.029805125  
     28200   304.96482      1261.6117     -6.6537421      1000000        100            0.029805125  
     28300   302.91809      1308.2037      24.244706      1000000        100            0.029805125  
     28400   298.15766      1338.7894      30.386442      1000000        100            0.029805125  
     28500   303.20507      1271.1475     -7.7924306      1000000        100            0.029805125  
     28600   301.23553      1242.8009      49.89846       1000000        100            0.029805125  
     28700   289.75912      1334.5076      46.9476        1000000        100            0.029805125  
     28800   306.45905      1241.0431     -15.184598      1000000        100            0.029805125  
     28900   306.84378      1268.8848     -3.5539863      1000000        100            0.029805125  
     29000   304.73692      1260.1694      7.2760789      1000000        100            0.029805125  
     29100   293.28672      1295.5796     -58.169967      1000000        100            0.029805125  
     29200   293.32484      1262.2929      18.423099      1000000        100            0.029805125  
     29300   303.16362      1212.163      -79.961256      1000000        100            0.029805125  
     29400   299.08866      1303.6383     -23.483601      1000000        100            0.029805125  
     29500   304.91163      1256.3527      23.447434      1000000        100            0.029805125  
     29600   299.12518      1257.7903     -59.572279      1000000        100            0.029805125  
     29700   302.41239      1190.7947      23.626026      1000000        100            0.029805125  
     29800   300.13702      1199.7477      11.342896      1000000        100            0.029805125  
     29900   299.02524      1232.057      -26.608396      1000000        100            0.029805125  
     30000   302.35641      1260.9985     -11.632065      1000000        100            0.029805125  
     30100   302.20489      1320.6694     -7.3057209      1000000        100            0.029805125  
     30200   299.18489      1332.1228      11.52605       1000000        100            0.029805125  
     30300   300.00646      1264.8474      62.205988      1000000        100            0.029805125  
     30400   294.87094      1256.5998      95.014128      1000000        100            0.029805125  
     30500   297.99588      1240.4471      13.545988      1000000        100            0.029805125  
     30600   305.3528       1233.1019      46.083477      1000000        100            0.029805125  
     30700   299.0606       1322.1326      53.984006      1000000        100            0.029805125  
     30800   305.64812      1255.0702     -2.885434       1000000        100            0.029805125  
     30900   303.29114      1223.2781     -43.559563      1000000        100            0.029805125  
     31000   294.06352      1263.4189      21.436009      1000000        100            0.029805125  
     31100   295.55717      1279.5068     -11.904552      1000000        100            0.029805125  
     31200   303.24701      1277.8576      9.1625962      1000000        100            0.029805125  
     31300   301.9028       1298.6004     -46.026318      1000000        100            0.029805125  
     31400   304.97795      1222.7991      18.247511      1000000        100            0.029805125  
     31500   298.61372      1212.255      -0.37114946     1000000        100            0.029805125  
     31600   292.54395      1284.5855     -3.4546683      1000000        100            0.029805125  
     31700   308.22364      1236.4679      15.876241      1000000        100            0.029805125  
     31800   303.6554       1293.0294      17.333663      1000000        100            0.029805125  
     31900   304.48322      1259.3569      30.802819      1000000        100            0.029805125  
     32000   293.67096      1274.5918      36.995693      1000000        100            0.029805125  
     32100   298.02141      1214.4363      26.806994      1000000        100            0.029805125  
     32200   294.41543      1341.3107      18.404527      1000000        100            0.029805125  
     32300   306.83229      1280.575      -8.5111317      1000000        100            0.029805125  
     32400   301.63341      1291.9255     -21.06958       1000000        100            0.029805125  
     32500   300.77934      1257.349      -29.784539      1000000        100            0.029805125  
     32600   294.27237      1292.2411     -42.230861      1000000        100            0.029805125  
     32700   293.47495      1298.6763     -57.688109      1000000        100            0.029805125  
     32800   302.87903      1289.0082     -43.149138      1000000        100            0.029805125  
     32900   310.32503      1256.0524      24.158155      1000000        100            0.029805125  
     33000   300.5072       1271.1408      43.623261      1000000        100            0.029805125  
     33100   297.5648       1243.3099      27.65154       1000000        100            0.029805125  
     33200   299.23696      1229.3686     -1.3810713      1000000        100            0.029805125  
     33300   296.70604      1283.9058      19.878687      1000000        100            0.029805125  
     33400   299.37585      1311.8522     -16.554016      1000000        100            0.029805125  
     33500   305.08397      1284.1121     -18.486798      1000000        100            0.029805125  
     33600   293.77922      1259.4888      28.39931       1000000        100            0.029805125  
     33700   286.38207      1288.0325     -56.210223      1000000        100            0.029805125  
     33800   293.04077      1295.9461      50.227255      1000000        100            0.029805125  
     33900   302.84769      1272.811      -31.251678      1000000        100            0.029805125  
     34000   313.48965      1176.9794     -31.746303      1000000        100            0.029805125  
     34100   297.27419      1245.4584     -15.201159      1000000        100            0.029805125  
     34200   294.59755      1197.3649     -20.285338      1000000        100            0.029805125  
     34300   296.42421      1220.7936      14.361774      1000000        100            0.029805125  
     34400   295.58491      1266.6483      15.532045      1000000        100            0.029805125  
     34500   305.42007      1221.2437     -54.539582      1000000        100            0.029805125  
     34600   303.11352      1239.9461      83.368884      1000000        100            0.029805125  
     34700   293.6949       1260.7537      29.841804      1000000        100            0.029805125  
     34800   294.22653      1184.7688     -26.093697      1000000        100            0.029805125  
     34900   299.49015      1181.7986     -11.60427       1000000        100            0.029805125  
     35000   302.3469       1234.8923      16.065694      1000000        100            0.029805125  
     35100   306.87452      1201.3807     -42.10214       1000000        100            0.029805125  
     35200   299.19349      1229.5813      39.195578      1000000        100            0.029805125  
     35300   298.55921      1222.4607      8.2065528      1000000        100            0.029805125  
     35400   302.5587       1200.8824     -34.825714      1000000        100            0.029805125  
     35500   299.95814      1235.0043     -32.660139      1000000        100            0.029805125  
     35600   301.07823      1225.2651      37.84108       1000000        100            0.029805125  
     35700   301.40788      1195.8402      35.464777      1000000        100            0.029805125  
     35800   296.79268      1210.147       21.201542      1000000        100            0.029805125  
     35900   288.92747      1282.6021     -2.3682308      1000000        100            0.029805125  
     36000   299.29382      1281.8472      22.869092      1000000        100            0.029805125  
     36100   305.57865      1257.2563      2.1261538      1000000        100            0.029805125  
     36200   305.32312      1213.3776     -8.8096591      1000000        100            0.029805125  
     36300   297.70232      1209.1795     -7.0936466      1000000        100            0.029805125  
     36400   296.40965      1221.9464     -8.6515649      1000000        100            0.029805125  
     36500   299.51634      1217.3723      29.540663      1000000        100            0.029805125  
     36600   300.01848      1255.2442      13.3401        1000000        100            0.029805125  
     36700   297.88777      1296.0793     -30.778578      1000000        100            0.029805125  
     36800   303.95013      1253.4553     -27.905966      1000000        100            0.029805125  
     36900   298.77766      1251.9885     -38.001374      1000000        100            0.029805125  
     37000   298.81129      1192.0053     -40.524473      1000000        100            0.029805125  
     37100   292.44811      1238.4376     -49.366479      1000000        100            0.029805125  
     37200   301.30073      1249.9518     -39.418591      1000000        100            0.029805125  
     37300   303.72493      1270.6389     -65.060297      1000000        100            0.029805125  
     37400   304.3556       1225.2019      7.5300177      1000000        100            0.029805125  
     37500   301.43859      1195.1344      35.671831      1000000        100            0.029805125  
     37600   301.01744      1183.0894      18.439454      1000000        100            0.029805125  
     37700   295.68582      1238.2427     -1.6275681      1000000        100            0.029805125  
     37800   305.97778      1236.8863      78.899496      1000000        100            0.029805125  
     37900   311.94236      1245.2785      77.334564      1000000        100            0.029805125  
     38000   298.67894      1302.9725     -20.847989      1000000        100            0.029805125  
     38100   304.40164      1208.2052      54.797181      1000000        100            0.029805125  
     38200   299.96063      1225.9908      2.5756129      1000000        100            0.029805125  
     38300   300.40676      1209.4082      1.9091665      1000000        100            0.029805125  
     38400   299.36272      1227.3136      17.751276      1000000        100            0.029805125  
     38500   303.60843      1207.2455     -6.0038964      1000000        100            0.029805125  
     38600   302.79696      1192.2864      29.749963      1000000        100            0.029805125  
     38700   295.49284      1199.8505      36.82143       1000000        100            0.029805125  
     38800   296.58587      1196.1339      27.301018      1000000        100            0.029805125  
     38900   294.29192      1314.9142      36.735275      1000000        100            0.029805125  
     39000   303.73817      1267.3077      17.168675      1000000        100            0.029805125  
     39100   299.11498      1289.9777     -28.950654      1000000        100            0.029805125  
     39200   304.95721      1172.621       4.1970528      1000000        100            0.029805125  
     39300   297.37058      1191.1363     -10.413492      1000000        100            0.029805125  
     39400   291.54505      1268.2872     -11.667197      1000000        100            0.029805125  
     39500   297.71706      1246.5953     -31.261039      1000000        100            0.029805125  
     39600   301.42654      1259.8283      43.222846      1000000        100            0.029805125  
     39700   301.54563      1278.63        2.9369841      1000000        100            0.029805125  
     39800   299.42348      1242.418      -0.10170935     1000000        100            0.029805125  
     39900   291.75496      1241.1082     -1.0754536      1000000        100            0.029805125  
     40000   294.68618      1265.0752     -66.640919      1000000        100            0.029805125  
     40100   297.58685      1303.1243      11.211007      1000000        100            0.029805125  
     40200   300.0387       1278.1264     -7.351088       1000000        100            0.029805125  
     40300   302.24011      1252.8422     -45.674667      1000000        100            0.029805125  
     40400   302.28723      1226.6707      18.216081      1000000        100            0.029805125  
     40500   296.80641      1213.811      -36.403094      1000000        100            0.029805125  
     40600   295.06487      1177.923      -19.821201      1000000        100            0.029805125  
     40700   296.16378      1219.052       25.267792      1000000        100            0.029805125  
     40800   311.90637      1163.9226      3.9526077      1000000        100            0.029805125  
     40900   308.5425       1160.7751      20.288741      1000000        100            0.029805125  
     41000   302.21012      1172.2608      27.954245      1000000        100            0.029805125  
     41100   298.42299      1186.6727     -17.393793      1000000        100            0.029805125  
     41200   299.40763      1197.3215      17.825251      1000000        100            0.029805125  
     41300   305.3993       1230.6738      1.9378855      1000000        100            0.029805125  
     41400   311.14304      1209.2185     -28.425857      1000000        100            0.029805125  
     41500   301.36395      1228.5594     -22.275034      1000000        100            0.029805125  
     41600   302.46885      1152.2487      15.923196      1000000        100            0.029805125  
     41700   296.89527      1202.7142      11.992649      1000000        100            0.029805125  
     41800   302.91221      1205.5561     -16.581975      1000000        100            0.029805125  
     41900   298.40836      1278.5484     -29.296607      1000000        100            0.029805125  
     42000   304.40556      1222.4466      26.319201      1000000        100            0.029805125  
     42100   301.8889       1219.2157     -28.802561      1000000        100            0.029805125  
     42200   292.0714       1232.6175     -3.58393        1000000        100            0.029805125  
     42300   289.02456      1195.9783     -17.723119      1000000        100            0.029805125  
     42400   291.0308       1242.4147     -6.7544096      1000000        100            0.029805125  
     42500   301.5191       1220.5974     -58.606121      1000000        100            0.029805125  
     42600   301.36867      1245.7536     -6.8308885      1000000        100            0.029805125  
     42700   301.57425      1266.2962     -1.9711605      1000000        100            0.029805125  
     42800   306.27594      1225.5062     -6.2312353      1000000        100            0.029805125  
     42900   297.37797      1222.5225     -26.19504       1000000        100            0.029805125  
     43000   297.65316      1164.3895     -15.098998      1000000        100            0.029805125  
     43100   295.70221      1217.8499      15.283996      1000000        100            0.029805125  
     43200   301.72843      1234.6672      47.313208      1000000        100            0.029805125  
     43300   301.12833      1243.9022      13.495964      1000000        100            0.029805125  
     43400   307.64351      1168.9559      31.097151      1000000        100            0.029805125  
     43500   299.38916      1214.175       2.756004       1000000        100            0.029805125  
     43600   297.31127      1193.9749      42.100443      1000000        100            0.029805125  
     43700   289.78126      1207.8293      12.701687      1000000        100            0.029805125  
     43800   297.43523      1172.6073     -14.099734      1000000        100            0.029805125  
     43900   299.589        1242.3134      14.925055      1000000        100            0.029805125  
     44000   300.23773      1248.6151     -6.0931         1000000        100            0.029805125  
     44100   297.63952      1225.5655     -24.523583      1000000        100            0.029805125  
     44200   296.33902      1185.445      -50.538043      1000000        100            0.029805125  
     44300   293.68546      1202.0099     -1.560929       1000000        100            0.029805125  
     44400   300.90069      1219.2641     -1.012027       1000000        100            0.029805125  
     44500   305.20983      1248.6937      57.622395      1000000        100            0.029805125  
     44600   303.24629      1253.2817     -9.8960864      1000000        100            0.029805125  
     44700   300.70945      1187.6102      2.8879978      1000000        100            0.029805125  
     44800   298.67629      1166.9303      32.255743      1000000        100            0.029805125  
     44900   294.59758      1218.0626     -3.7265184      1000000        100            0.029805125  
     45000   298.87357      1245.4545     -63.841168      1000000        100            0.029805125  
     45100   300.37858      1233.4227     -26.580217      1000000        100            0.029805125  
     45200   301.62408      1199.4808     -10.407291      1000000        100            0.029805125  
     45300   293.29579      1242.2305      20.638111      1000000        100            0.029805125  
     45400   298.99169      1172.4319     -37.030623      1000000        100            0.029805125  
     45500   297.67024      1154.4103      24.565039      1000000        100            0.029805125  
     45600   294.99115      1163.9823     -0.95563377     1000000        100            0.029805125  
     45700   301.72718      1165.5218      38.728043      1000000        100            0.029805125  
     45800   308.67767      1156.8266     -12.807637      1000000        100            0.029805125  
     45900   297.87598      1229.1943     -9.4903636      1000000        100            0.029805125  
     46000   291.35353      1197.1068     -24.933559      1000000        100            0.029805125  
     46100   296.83556      1119.0046     -6.0877665      1000000        100            0.029805125  
     46200   296.7626       1179.7671     -13.982496      1000000        100            0.029805125  
     46300   299.52313      1191.6896     -57.471034      1000000        100            0.029805125  
     46400   300.59141      1225.0402      67.865574      1000000        100            0.029805125  
     46500   304.64945      1199.1698     -21.978713      1000000        100            0.029805125  
     46600   306.69331      1124.2832     -51.945021      1000000        100            0.029805125  
     46700   295.70872      1125.7429      3.0807641      1000000        100            0.029805125  
     46800   295.33763      1155.4829      15.74816       1000000        100            0.029805125  
     46900   298.95873      1191.7474      15.229561      1000000        100            0.029805125  
     47000   298.00109      1224.4872     -9.2652953      1000000        100            0.029805125  
     47100   297.97131      1219.3117     -6.5846955      1000000        100            0.029805125  
     47200   296.17785      1186.4134      35.873721      1000000        100            0.029805125  
     47300   293.69928      1132.9637     -36.632337      1000000        100            0.029805125  
     47400   290.88005      1190.3078      4.3379494      1000000        100            0.029805125  
     47500   297.64632      1242.6008      6.8181136      1000000        100            0.029805125  
     47600   300.47479      1245.1823      9.8014979      1000000        100            0.029805125  
     47700   304.59138      1170.0852     -0.93680713     1000000        100            0.029805125  
     47800   297.51658      1168.5909     -11.032719      1000000        100            0.029805125  
     47900   296.18663      1172.0309     -57.799264      1000000        100            0.029805125  
     48000   299.05996      1236.553      -18.784914      1000000        100            0.029805125  
     48100   302.11646      1269.5707      4.8594118      1000000        100            0.029805125  
     48200   307.52668      1170.3103     -34.684975      1000000        100            0.029805125  
     48300   300.50596      1163.8492     -5.978692       1000000        100            0.029805125  
     48400   302.10283      1131.7434      28.837398      1000000        100            0.029805125  
     48500   297.94918      1181.2697      45.090625      1000000        100            0.029805125  
     48600   302.71498      1186.8462      5.0025907      1000000        100            0.029805125  
     48700   307.64398      1229.6054     -8.2776468      1000000        100            0.029805125  
     48800   303.48853      1238.7714      1.2392934      1000000        100            0.029805125  
     48900   294.44815      1227.1083     -30.262496      1000000        100            0.029805125  
     49000   297.74178      1195.1174     -22.530749      1000000        100            0.029805125  
     49100   303.0095       1184.4234     -87.939335      1000000        100            0.029805125  
     49200   295.41064      1280.0049     -36.851669      1000000        100            0.029805125  
     49300   311.7037       1224.3257     -15.609286      1000000        100            0.029805125  
     49400   312.85359      1253.6679      26.837674      1000000        100            0.029805125  
     49500   303.10172      1245.7876     -53.266145      1000000        100            0.029805125  
     49600   300.12753      1226.5579     -8.4135044      1000000        100            0.029805125  
     49700   298.74709      1212.5294      73.97292       1000000        100            0.029805125  
     49800   297.05362      1224.3663     -16.256407      1000000        100            0.029805125  
     49900   301.06812      1216.1482      4.9805882      1000000        100            0.029805125  
     50000   300.8362       1275.3878      7.4410573      1000000        100            0.029805125  
     50100   304.84651      1278.3361     -8.1440108      1000000        100            0.029805125  
     50200   297.85445      1313.1726     -57.832648      1000000        100            0.029805125  
     50300   295.13025      1234.8736     -49.730368      1000000        100            0.029805125  
     50400   293.73587      1221.2256     -75.866562      1000000        100            0.029805125  
     50500   296.78483      1258.3868     -24.027706      1000000        100            0.029805125  
     50600   304.35769      1233.8931      44.80854       1000000        100            0.029805125  
     50700   302.67118      1241.8507      2.7544119      1000000        100            0.029805125  
     50800   301.30273      1219.2237      49.693415      1000000        100            0.029805125  
     50900   291.53355      1224.2855      33.768078      1000000        100            0.029805125  
     51000   294.20246      1147.3262      26.685087      1000000        100            0.029805125  
     51100   293.87419      1181.5236     -25.911905      1000000        100            0.029805125  
     51200   300.13272      1173.1471      20.754819      1000000        100            0.029805125  
     51300   301.47122      1205.6368     -0.30567757     1000000        100            0.029805125  
     51400   302.23358      1218.8332      42.364889      1000000        100            0.029805125  
     51500   300.68002      1191          -33.581439      1000000        100            0.029805125  
     51600   293.04879      1178.6957      44.218641      1000000        100            0.029805125  
     51700   300.35556      1126.8228     -13.734773      1000000        100            0.029805125  
     51800   300.07792      1196.8447     -46.858653      1000000        100            0.029805125  
     51900   307.30861      1210.8833      1.7415626      1000000        100            0.029805125  
     52000   304.52593      1214.9732      17.593353      1000000        100            0.029805125  
     52100   303.44086      1173.9252      18.512755      1000000        100            0.029805125  
     52200   295.94651      1194.5925     -21.846887      1000000        100            0.029805125  
     52300   297.41761      1181.2489     -55.57868       1000000        100            0.029805125  
     52400   302.05867      1225.9835     -1.1391738      1000000        100            0.029805125  
     52500   302.82357      1264.4823     -15.990226      1000000        100            0.029805125  
     52600   306.12412      1181.1918     -46.78476       1000000        100            0.029805125  
     52700   297.24322      1194.636      -39.196531      1000000        100            0.029805125  
     52800   301.08225      1167.1728      69.454399      1000000        100            0.029805125  
     52900   297.73845      1214.0259     -27.355325      1000000        100            0.029805125  
     53000   308.06658      1182.8905      25.180405      1000000        100            0.029805125  
     53100   303.84694      1286.2447      28.060298      1000000        100            0.029805125  
     53200   304.76018      1264.1181      3.0200014      1000000        100            0.029805125  
     53300   301.36234      1171.3711     -27.049038      1000000        100            0.029805125  
     53400   297.65592      1181.0128     -14.559208      1000000        100            0.029805125  
     53500   302.10033      1173.1817      1.0024458      1000000        100            0.029805125  
     53600   305.36203      1199.1616     -10.110026      1000000        100            0.029805125  
     53700   307.74725      1159.0953      45.384871      1000000        100            0.029805125  
     53800   289.89068      1202.2722      24.04554       1000000        100            0.029805125  
     53900   298.19696      1144.9801      4.3036902      1000000        100            0.029805125  
     54000   299.26175      1192.3037     -20.396191      1000000        100            0.029805125  
     54100   303.62067      1183.3853      2.795993       1000000        100            0.029805125  
     54200   299.95358      1211.706      -28.230619      1000000        100            0.029805125  
     54300   293.57676      1244.9611     -5.4543067      1000000        100            0.029805125  
     54400   292.79539      1195.6735     -59.962193      1000000        100            0.029805125  
     54500   293.15645      1128.6042      32.478833      1000000        100            0.029805125  
     54600   296.9549       1165.0829     -33.107515      1000000        100            0.029805125  
     54700   303.56586      1172.9096     -10.821297      1000000        100            0.029805125  
     54800   300.5302       1220.0901      10.564788      1000000        100            0.029805125  
     54900   296.71589      1256.2571      5.3906973      1000000        100            0.029805125  
     55000   296.37151      1223.6425     -3.2885133      1000000        100            0.029805125  
     55100   293.37504      1182.5128      31.307441      1000000        100            0.029805125  
     55200   297.77008      1149.9625      28.548731      1000000        100            0.029805125  
     55300   301.80209      1205.1158     -31.539257      1000000        100            0.029805125  
     55400   307.30556      1190.561       16.171977      1000000        100            0.029805125  
     55500   302.29608      1207.9226     -23.989599      1000000        100            0.029805125  
     55600   298.23098      1207.4578     -11.418344      1000000        100            0.029805125  
     55700   299.93517      1157.455       21.80116       1000000        100            0.029805125  
     55800   299.09666      1155.4254      11.20061       1000000        100            0.029805125  
     55900   303.08092      1134.4223      76.806362      1000000        100            0.029805125  
     56000   296.42521      1220.6206      15.094489      1000000        100            0.029805125  
     56100   302.96316      1169.5114     -13.040664      1000000        100            0.029805125  
     56200   299.18179      1189.9504      8.3123819      1000000        100            0.029805125  
     56300   295.51906      1217.057      -26.267739      1000000        100            0.029805125  
     56400   293.7113       1230.921      -22.232633      1000000        100            0.029805125  
     56500   294.92721      1233.0054     -2.6010667      1000000        100            0.029805125  
     56600   296.11939      1247.1453      3.2897902      1000000        100            0.029805125  
     56700   306.02538      1203.4176      4.3259947      1000000        100            0.029805125  
     56800   302.98503      1259.1873     -9.7860566      1000000        100            0.029805125  
     56900   306.93495      1157.5886     -0.77429049     1000000        100            0.029805125  
     57000   303.09103      1120.8557     -5.7964424      1000000        100            0.029805125  
     57100   301.33644      1118.3448      2.7144881      1000000        100            0.029805125  
     57200   300.62395      1145.0336     -3.7424252      1000000        100            0.029805125  
     57300   306.42121      1191.2452     -5.6004684      1000000        100            0.029805125  
     57400   306.27694      1224.7563      31.164772      1000000        100            0.029805125  
     57500   303.98361      1168.3957      69.631252      1000000        100            0.029805125  
     57600   300.46927      1149.8755      8.475314       1000000        100            0.029805125  
     57700   299.05423      1153.7148     -33.148551      1000000        100            0.029805125  
     57800   296.89173      1185.8512      17.550459      1000000        100            0.029805125  
     57900   302.07704      1169.9438     -16.996112      1000000        100            0.029805125  
     58000   308.08042      1176.2518     -32.633201      1000000        100            0.029805125  
     58100   304.2762       1185.4901     -43.640441      1000000        100            0.029805125  
     58200   303.49017      1090.1472     -35.86626       1000000        100            0.029805125  
     58300   292.64673      1167.4778     -19.287783      1000000        100            0.029805125  
     58400   298.93243      1163.4722      4.4168093      1000000        100            0.029805125  
     58500   303.46933      1174.4984     -8.1117575      1000000        100            0.029805125  
     58600   302.36169      1181.2335      11.341148      1000000        100            0.029805125  
     58700   293.63556      1140.1638      57.431055      1000000        100            0.029805125  
     58800   292.90132      1126.0165      0.5326815      1000000        100            0.029805125  
     58900   297.32621      1160.7726      1.9545359      1000000        100            0.029805125  
     59000   304.32142      1153.013       25.527118      1000000        100            0.029805125  
     59100   300.02571      1192.0158      37.993937      1000000        100            0.029805125  
     59200   297.82959      1180.542       42.557396      1000000        100            0.029805125  
     59300   289.63119      1165.0906      2.2381989      1000000        100            0.029805125  
     59400   292.10981      1132.8917      22.629812      1000000        100            0.029805125  
     59500   297.49619      1183.3081      32.128076      1000000        100            0.029805125  
     59600   299.15318      1201.0827     -1.2193889      1000000        100            0.029805125  
     59700   294.81295      1213.6798     -9.4598645      1000000        100            0.029805125  
     59800   296.09909      1146.993       22.177965      1000000        100            0.029805125  
     59900   298.83216      1101.0321      43.257458      1000000        100            0.029805125  
     60000   303.71616      1142.8687     -2.9705309      1000000        100            0.029805125  
     60100   300.12568      1247.0973     -13.387996      1000000        100            0.029805125  
     60200   302.66143      1211.6176     -3.8491317      1000000        100            0.029805125  
     60300   293.26875      1222.8701      5.5603649      1000000        100            0.029805125  
     60400   294.07645      1169.7773      13.088648      1000000        100            0.029805125  
     60500   294.81501      1165.0863      54.027262      1000000        100            0.029805125  
     60600   293.53505      1216.6439      20.424094      1000000        100            0.029805125  
     60700   300.43685      1186.3918      15.769921      1000000        100            0.029805125  
     60800   300.57024      1197.2197      49.636506      1000000        100            0.029805125  
     60900   306.46679      1178.2678     -3.2528677      1000000        100            0.029805125  
     61000   308.33004      1208.496       4.0037302      1000000        100            0.029805125  
     61100   298.78298      1269.8322     -8.8631015      1000000        100            0.029805125  
     61200   292.93633      1230.007      -40.171771      1000000        100            0.029805125  
     61300   292.9955       1219.87       -12.863327      1000000        100            0.029805125  
     61400   301.94089      1181.4812      7.0250565      1000000        100            0.029805125  
     61500   306.67512      1190.277      -23.369274      1000000        100            0.029805125  
     61600   305.18076      1288.0521      4.5308161      1000000        100            0.029805125  
     61700   302.92703      1246.6609     -108.15988      1000000        100            0.029805125  
     61800   302.99109      1166.0721     -10.540561      1000000        100            0.029805125  
     61900   293.25096      1222.9092     -6.7063771      1000000        100            0.029805125  
     62000   300.27452      1176.9831     -62.490501      1000000        100            0.029805125  
     62100   308.01106      1171.7333     -12.945909      1000000        100            0.029805125  
     62200   301.70752      1269.4182      22.18638       1000000        100            0.029805125  
     62300   307.73115      1161.1651      37.472139      1000000        100            0.029805125  
     62400   298.21281      1144.8744      35.967743      1000000        100            0.029805125  
     62500   294.40768      1159.1401     -39.155357      1000000        100            0.029805125  
     62600   299.99583      1140.5127      18.953255      1000000        100            0.029805125  
     62700   303.89444      1179.2624      63.809599      1000000        100            0.029805125  
     62800   309.22106      1174.0711      17.757244      1000000        100            0.029805125  
     62900   301.45652      1195.4835      23.191005      1000000        100            0.029805125  
     63000   288.942        1184.3703      29.576775      1000000        100            0.029805125  
     63100   296.64061      1139.7656     -9.2270861      1000000        100            0.029805125  
     63200   304.35583      1139.3817      48.328932      1000000        100            0.029805125  
     63300   298.63391      1236.2057     -3.6898989      1000000        100            0.029805125  
     63400   305.14976      1162.4385      31.323399      1000000        100            0.029805125  
     63500   295.96643      1166.7767      42.715782      1000000        100            0.029805125  
     63600   288.42789      1137.8344      16.179636      1000000        100            0.029805125  
     63700   296.1128       1075.1566      6.7185662      1000000        100            0.029805125  
     63800   299.11597      1176.7017     -17.549372      1000000        100            0.029805125  
     63900   302.88024      1194.1428     -2.1402323      1000000        100            0.029805125  
     64000   300.20179      1214.8547     -23.014693      1000000        100            0.029805125  
     64100   299.88948      1174.5141     -28.830717      1000000        100            0.029805125  
     64200   295.15921      1160.8777      16.204049      1000000        100            0.029805125  
     64300   299.45103      1133.5223     -43.248205      1000000        100            0.029805125  
     64400   302.56043      1196.5375     -5.2969987      1000000        100            0.029805125  
     64500   295.111        1290.8459     -36.475717      1000000        100            0.029805125  
     64600   302.63182      1176.5533     -43.354144      1000000        100            0.029805125  
     64700   296.07903      1153.5415      35.004624      1000000        100            0.029805125  
     64800   299.09098      1131.2364      14.113553      1000000        100            0.029805125  
     64900   296.46783      1177.6261      8.4800192      1000000        100            0.029805125  
     65000   296.70829      1236.7686     -23.321446      1000000        100            0.029805125  
     65100   304.40007      1222.171      -3.7907187      1000000        100            0.029805125  
     65200   300.44565      1222.3045     -37.326556      1000000        100            0.029805125  
     65300   294.7348       1149.2599      0.0094185122   1000000        100            0.029805125  
     65400   288.27031      1215.1511     -13.512072      1000000        100            0.029805125  
     65500   301.61551      1182.6476     -15.224962      1000000        100            0.029805125  
     65600   308.40837      1161.8903     -12.55388       1000000        100            0.029805125  
     65700   299.38623      1210.0005      32.226982      1000000        100            0.029805125  
     65800   298.61189      1141.2303     -2.4449141      1000000        100            0.029805125  
     65900   292.94977      1122.2431      2.9240098      1000000        100            0.029805125  
     66000   294.12463      1132.3827      1.5538078      1000000        100            0.029805125  
     66100   306.0226       1147.3699     -8.7865134      1000000        100            0.029805125  
     66200   301.3174       1208.6327      13.317776      1000000        100            0.029805125  
     66300   298.18029      1212.4162     -13.095061      1000000        100            0.029805125  
     66400   296.40472      1170.5779     -15.612109      1000000        100            0.029805125  
     66500   291.65615      1191.9244      4.8075679      1000000        100            0.029805125  
     66600   302.7418       1187.9103      1.4945582      1000000        100            0.029805125  
     66700   309.80537      1180.1799      0.97650607     1000000        100            0.029805125  
     66800   304.17555      1182.6865     -21.156565      1000000        100            0.029805125  
     66900   295.93255      1207.8232      55.831314      1000000        100            0.029805125  
     67000   297.13771      1190.5109     -20.788059      1000000        100            0.029805125  
     67100   294.54195      1213.9757     -52.571343      1000000        100            0.029805125  
     67200   302.01827      1166.4305      4.2947807      1000000        100            0.029805125  
     67300   302.29846      1169.6878      13.507427      1000000        100            0.029805125  
     67400   294.59451      1219.6458     -0.46860513     1000000        100            0.029805125  
     67500   301.40246      1144.132      -19.031359      1000000        100            0.029805125  
     67600   305.26121      1090.5791     -40.039107      1000000        100            0.029805125  
     67700   294.82539      1138.3318     -55.769143      1000000        100            0.029805125  
     67800   301.07303      1057.4833     -30.979057      1000000        100            0.029805125  
     67900   298.3588       1105.5756     -32.730691      1000000        100            0.029805125  
     68000   302.80518      1158.8016     -3.2856523      1000000        100            0.029805125  
     68100   302.41303      1201.1283     -35.099197      1000000        100            0.029805125  
     68200   298.1022       1227.5995     -42.043477      1000000        100            0.029805125  
     68300   298.10831      1161.0372     -14.704458      1000000        100            0.029805125  
     68400   289.82229      1164.1947     -18.473323      1000000        100            0.029805125  
     68500   300.63361      1124.4947     -50.734282      1000000        100            0.029805125  
     68600   298.2163       1190.1759      17.749419      1000000        100            0.029805125  
     68700   300.4528       1183.0162     -40.090596      1000000        100            0.029805125  
     68800   298.92582      1181.0416      15.150057      1000000        100            0.029805125  
     68900   297.88569      1159.6977      7.8728526      1000000        100            0.029805125  
     69000   299.12868      1129.0202     -2.1878971      1000000        100            0.029805125  
     69100   301.2232       1161.844       42.153046      1000000        100            0.029805125  
     69200   307.77017      1173.4765      58.259728      1000000        100            0.029805125  
     69300   304.35555      1185.4434     -8.0376722      1000000        100            0.029805125  
     69400   298.6835       1144.4167      8.2149907      1000000        100            0.029805125  
     69500   294.48261      1173.6169      25.584541      1000000        100            0.029805125  
     69600   301.97829      1140.3282     -25.949075      1000000        100            0.029805125  
     69700   303.11101      1172.7283     -11.451696      1000000        100            0.029805125  
     69800   301.96844      1208.9751     -23.409372      1000000        100            0.029805125  
     69900   303.70532      1192.5625      44.027316      1000000        100            0.029805125  
     70000   295.72712      1181.4948      3.6877729      1000000        100            0.029805125  
     70100   295.08596      1134.794       20.915808      1000000        100            0.029805125  
     70200   294.19785      1166.2754      33.464569      1000000        100            0.029805125  
     70300   306.77938      1145.1628     -4.3964937      1000000        100            0.029805125  
     70400   303.02768      1185.9267      31.642399      1000000        100            0.029805125  
     70500   301.81098      1170.9392      42.141166      1000000        100            0.029805125  
     70600   296.56252      1177.945      -19.199745      1000000        100            0.029805125  
     70700   294.04482      1173.787      -40.886257      1000000        100            0.029805125  
     70800   290.82984      1142.3076     -46.600707      1000000        100            0.029805125  
     70900   292.22882      1112.8868     -26.455819      1000000        100            0.029805125  
     71000   301.1248       1132.6865      10.875272      1000000        100            0.029805125  
     71100   306.60715      1131.7593     -11.055071      1000000        100            0.029805125  
     71200   303.81065      1150.5824     -17.779056      1000000        100            0.029805125  
     71300   304.08804      1073.2328      24.27183       1000000        100            0.029805125  
     71400   295.63295      1095.411       10.612563      1000000        100            0.029805125  
     71500   294.67511      1127.044      -25.871454      1000000        100            0.029805125  
     71600   300.99463      1110.981       17.537303      1000000        100            0.029805125  
     71700   294.82096      1180.105       9.456137       1000000        100            0.029805125  
     71800   297.88669      1176.2347     -22.138767      1000000        100            0.029805125  
     71900   302.6922       1170.3763     -28.424902      1000000        100            0.029805125  
     72000   303.78183      1204.9763     -2.9218677      1000000        100            0.029805125  
     72100   300.81911      1200.3722      2.8253563      1000000        100            0.029805125  
     72200   301.98001      1101.7568      38.925402      1000000        100            0.029805125  
     72300   300.35179      1096.7383      11.753744      1000000        100            0.029805125  
     72400   304.04102      1082.4293     -1.2170837      1000000        100            0.029805125  
     72500   303.22613      1154.7061     -9.0118584      1000000        100            0.029805125  
     72600   308.52419      1189.0226      18.180105      1000000        100            0.029805125  
     72700   303.92604      1178.1693      6.219576       1000000        100            0.029805125  
     72800   300.21676      1153.4473      13.179616      1000000        100            0.029805125  
     72900   294.07239      1191.0713      13.062847      1000000        100            0.029805125  
     73000   298.17467      1135.3514     -13.759321      1000000        100            0.029805125  
     73100   294.63253      1118.3178     -24.247392      1000000        100            0.029805125  
     73200   296.66066      1047.6249     -45.821911      1000000        100            0.029805125  
     73300   299.56753      1080.5316     -0.4570729      1000000        100            0.029805125  
     73400   300.5514       1151.8526      34.859109      1000000        100            0.029805125  
     73500   303.51627      1143.5497     -22.106616      1000000        100            0.029805125  
     73600   300.44594      1149.7903     -8.5997769      1000000        100            0.029805125  
     73700   298.66038      1115.001       33.302517      1000000        100            0.029805125  
     73800   292.17211      1097.1964     -20.475938      1000000        100            0.029805125  
     73900   293.61155      1131.4766      28.412695      1000000        100            0.029805125  
     74000   296.18419      1194.4759     -18.962564      1000000        100            0.029805125  
     74100   298.9518       1184.7839     -21.953155      1000000        100            0.029805125  
     74200   303.15058      1154.6008     -28.45437       1000000        100            0.029805125  
     74300   302.98987      1167.1429     -17.463996      1000000        100            0.029805125  
     74400   300.33701      1193.8287     -41.170268      1000000        100            0.029805125  
[...]
   1186900   302.55088      715.34445      119.39872      25482.256      29.426998      1.1696423    
   1187000   300.09124      723.29353     -81.477731      25441.656      29.411361      1.1715088    
   1187100   297.18311      728.20024      463.47445      25562.268      29.457765      1.1659812    
   1187200   301.9339       681.40419     -776.4755       25647.088      29.490311      1.1621251    
   1187300   294.9085       758.25844     -1003.4348      25544.944      29.451109      1.166772     
   1187400   301.97027      739.5814      -1472.9384      25371.312      29.38423       1.1747569    
   1187500   299.15798      795.34005     -188.00691      25732.963      29.523189      1.1582469    
   1187600   299.97596      781.8315       499.03648      25729.694      29.521939      1.1583941    
   1187700   299.80064      707.89479     -3126.0687      25806.984      29.55147       1.1549248    
   1187800   289.30411      748.18664     -1047.983       25722.998      29.519377      1.1586956    
   1187900   295.89622      743.06607     -1687.6869      25690.923      29.507103      1.1601423    
   1188000   306.24395      738.11772     -1115.0306      25401.816      29.396001      1.1733462    
   1188100   306.14208      727.33597      245.92288      25468.442      29.421679      1.1702767    
   1188200   302.6787       711.12399      524.30654      25576.903      29.463386      1.1653141    
   1188300   298.94787      692.88305      919.66674      25824.313      29.558082      1.1541498    
   1188400   293.67652      740.91968      995.33599      25689.153      29.506425      1.1602222    
   1188500   300.54722      801.44796      1386.1998      25661.864      29.495974      1.161456     
   1188600   309.40023      729.39621      1206.0287      25627.305      29.482727      1.1630222    
   1188700   301.21327      733.09758      728.98868      25567.044      29.4596        1.1657634    
   1188800   296.15831      732.32932     -1363.475       25967.324      29.612545      1.1477935    
   1188900   298.42418      733.08211      1277.9888      25661.257      29.495741      1.1614835    
   1189000   308.92581      722.14324      1077.6145      25476.827      29.424908      1.1698916    
   1189100   306.9209       760.67838     -247.19363      25676.278      29.501495      1.160804     
   1189200   304.76944      753.63595      1323.7787      26026.271      29.634935      1.1451938    
   1189300   298.5892       786.86782      131.87031      25987.247      29.620116      1.1469135    
   1189400   302.05288      737.69533     -821.53726      25772.401      29.538263      1.1564745    
   1189500   293.87574      775.28935      644.78519      25527.973      29.444586      1.1675476    
   1189600   296.08739      740.67712     -65.925833      25775.865      29.539587      1.1563191    
   1189700   296.3399       779.4158       573.86383      25989.169      29.620846      1.1468287    
   1189800   303.70045      807.20874     -1093.854       26021.012      29.632939      1.1454253    
   1189900   302.07466      840.76305     -1700.4791      25982.066      29.618148      1.1471422    
   1190000   297.64218      829.62552      1165.1976      25796.752      29.547564      1.1553829    
   1190100   295.899        776.42204     -423.1903       25759.547      29.533352      1.1570516    
   1190200   296.04089      767.61385     -434.34592      25587.158      29.467323      1.164847     
   1190300   299.10657      772.73421      633.56305      25691.845      29.507456      1.1601006    
   1190400   302.67352      794.44273     -2285.1421      26055.832      29.646151      1.1438946    
   1190500   301.85209      841.03781     -1819.1013      26175.216      29.69136       1.1386773    
   1190600   307.90257      788.02091      956.26908      26102.734      29.663929      1.1418392    
   1190700   298.53833      781.3373      -1043.0733      25962.445      29.61069       1.1480092    
   1190800   296.04275      753.06861      1652.3828      25719.026      29.517858      1.1588746    
   1190900   298.70368      722.21668      682.95112      25645.377      29.489655      1.1622027    
   1191000   302.87919      743.23659     -1180.5454      25672.36       29.499994      1.1609811    
   1191100   305.59303      794.09705      772.47112      25630.616      29.483996      1.162872     
   1191200   304.73586      770.79728      1733.9863      25783.725      29.542589      1.1559666    
   1191300   298.62811      717.5866      -654.04489      25802.007      29.54957       1.1551475    
   1191400   305.14192      653.36463      1126.6407      25684.22       29.504536      1.160445     
   1191500   297.52616      741.35634     -814.71218      25817.195      29.555367      1.154468     
   1191600   300.67244      786.43331      496.42715      25848.842      29.567438      1.1530546    
   1191700   300.37878      819.19439     -810.02163      26054.676      29.645712      1.1439454    
   1191800   304.26209      769.74973     -837.45129      25833.362      29.561535      1.1537455    
   1191900   297.43947      707.49773      1335.3964      25755.193      29.531688      1.1572472    
   1192000   296.55016      688.18404     -2310.7035      25699.303      29.510311      1.159764     
   1192100   297.58648      714.17153      582.05845      25552.525      29.454022      1.1664258    
   1192200   307.42048      702.17397      452.02943      25677.33       29.501898      1.1607564    
   1192300   304.99241      742.14089      7.7948435      25464.664      29.420225      1.1704504    
   1192400   298.44123      741.85045     -1516.7249      25442.576      29.411716      1.1714665    
   1192500   294.0737       671.12382     -640.51363      25577.819      29.463738      1.1652723    
   1192600   296.55567      687.75255     -1981.966       25794.245      29.546606      1.1554952    
   1192700   304.71135      695.4077       929.20258      25687.376      29.505745      1.1603024    
   1192800   304.27352      740.07501     -373.6715       25588.797      29.467952      1.1647724    
   1192900   294.20902      800.65827     -1715.0298      25842.568      29.565046      1.1533345    
   1193000   295.68139      710.59662      3114.1889      25662.108      29.496067      1.1614449    
   1193100   294.85107      674.95157     -1773.9626      25748.769      29.529232      1.1575359    
   1193200   298.30227      748.01485     -811.15865      25525.811      29.443754      1.1676465    
   1193300   303.69615      765.58596      402.02947      25678.158      29.502215      1.160719     
   1193400   303.03264      774.77553     -1077.0497      25762.324      29.534413      1.1569269    
   1193500   298.50839      767.3068      -290.70642      25764.688      29.535316      1.1568207    
   1193600   294.89062      756.27552     -1092.7432      25795.73       29.547173      1.1554287    
   1193700   292.84143      770.92782     -1816.0493      25718.298      29.517579      1.1589074    
   1193800   304.11298      763.83376      214.7883       25641.195      29.488052      1.1623922    
   1193900   309.21602      760.44234     -1125.2746      25834.975      29.56215       1.1536735    
   1194000   304.86743      742.38453      2176.0399      25688.272      29.506088      1.160262     
   1194100   298.86507      727.6705       1138.5227      25561.821      29.457593      1.1660017    
   1194200   293.68133      765.22581     -1375.4959      25321.95       29.365161      1.177047     
   1194300   307.43595      663.34484      15.995497      25257.54       29.340242      1.1800486    
   1194400   307.04361      661.27157      956.8285       25422.618      29.404023      1.1723862    
   1194500   297.05539      708.61292      1509.6928      25564.301      29.458546      1.1658885    
   1194600   297.40598      718.90064     -520.30022      25523.332      29.442801      1.16776      
   1194700   300.7381       758.64697      1126.0233      25529.367      29.445121      1.1674839    
   1194800   303.15571      756.28359      882.96089      25584.15       29.466168      1.164984     
   1194900   302.98999      681.04995      467.97644      25565.711      29.459087      1.1658242    
   1195000   293.11389      698.47527     -740.78859      25356.297      29.378432      1.1754526    
   1195100   294.04132      726.53447      2416.9359      25269.607      29.344913      1.1794851    
   1195200   301.24408      723.16874     -528.32115      25446.63       29.413278      1.1712799    
   1195300   302.47366      728.2118       890.68498      25285.526      29.351074      1.1787425    
   1195400   298.31947      770.12406      495.34969      25419.527      29.402832      1.1725287    
   1195500   301.34697      718.97483     -588.00807      25531.333      29.445877      1.167394     
   1195600   300.19829      674.46765      266.32912      25493.221      29.431218      1.1691392    
   1195700   299.77404      651.95949     -1251.2819      25657.524      29.494311      1.1616524    
   1195800   303.18845      688.48077     -503.32444      25631.032      29.484156      1.1628531    
   1195900   304.06758      743.99856      323.70414      25550.645      29.4533        1.1665117    
   1196000   302.95212      732.64423      1929.4444      25365.019      29.3818        1.1750484    
   1196100   296.33633      744.91508      164.3347       25561.261      29.457378      1.1660272    
   1196200   291.07933      745.7505       1112.3195      25757.349      29.532512      1.1571504    
   1196300   291.59794      720.69867      602.53593      25373.194      29.384956      1.1746698    
   1196400   299.75073      697.42633     -1752.3654      25381.213      29.388051      1.1742987    
   1196500   301.65031      745.47159      391.09062      25159.314      29.302157      1.1846557    
   1196600   301.852        756.19054     -2532.0858      25539.256      29.448923      1.1670318    
   1196700   300.08871      694.23626      1199.9816      25464.554      29.420182      1.1704554    
   1196800   294.07259      683.06594      1881.9254      25483.481      29.42747       1.1695861    
   1196900   294.03394      715.3364      -2167.5803      25559.481      29.456694      1.1661084    
   1197000   302.21774      693.92587     -51.388495      25268.966      29.344665      1.179515     
   1197100   297.9876       753.64429      2594.5683      25310.931      29.360901      1.1775594    
   1197200   294.16505      799.23685      1717.6754      25616.273      29.478495      1.1635231    
   1197300   303.65634      664.99062      124.31956      25470.505      29.422474      1.1701819    
   1197400   297.35523      632.78933     -3096.5381      25376.8        29.386348      1.1745029    
   1197500   295.23597      670.20986      697.29455      25309.832      29.360476      1.1776105    
   1197600   297.39618      731.76923      2028.6839      25400.474      29.395483      1.1734082    
   1197700   302.27761      716.88325     -1132.4755      25701.258      29.511059      1.1596757    
   1197800   302.64829      714.02565     -2938.0648      25627.627      29.48285       1.1630076    
   1197900   299.92351      690.1078      -3101.844       25330.584      29.368498      1.1766458    
   1198000   293.73012      647.05598      1719.0922      25243.511      29.334808      1.1807044    
   1198100   299.85794      602.39624     -362.34615      25433.949      29.408391      1.1718638    
   1198200   292.82628      708.64647     -546.36076      25111.281      29.283498      1.1869217    
   1198300   293.57226      758.05283     -693.34672      25336.631      29.370835      1.176365     
   1198400   301.93121      710.97323      1572.8063      25087.431      29.274224      1.1880501    
   1198500   301.15308      710.52823     -1815.2059      25583          29.465727      1.1650364    
   1198600   294.58994      712.78446     -1092.8647      25501.102      29.43425       1.1687779    
   1198700   294.24216      672.33867      745.04966      25338.336      29.371493      1.1762858    
   1198800   292.93807      725.52156      532.9523       25314.825      29.362406      1.1773783    
   1198900   302.78886      717.62318      776.46377      25476.929      29.424947      1.1698869    
   1199000   299.95067      754.92381      100.2927       25635.16       29.485738      1.1626659    
   1199100   301.75716      709.94043     -136.08265      25530.477      29.445548      1.1674331    
   1199200   298.52128      704.44044      335.4428       25349.125      29.375662      1.1757852    
   1199300   303.29366      664.91354      163.13676      25289.512      29.352616      1.1785567    
   1199400   302.68925      693.53269     -1342.4278      25431.405      29.40741       1.1719811    
   1199500   302.44028      733.72991     -94.633547      25435.718      29.409073      1.1717823    
   1199600   303.24576      782.69978      1527.9129      25317.998      29.363633      1.1772307    
   1199700   312.18726      719.18109      1607.9076      25489.923      29.429949      1.1692905    
   1199800   300.24901      721.22405      572.35218      25443.679      29.412141      1.1714157    
   1199900   296.63028      706.36445      54.340683      25344.1        29.37372       1.1760183    
   1200000   298.94974      694.87717      1191.0016      25161.774      29.303112      1.1845399    
   1200100   299.96903      747.45784     -1437.6016      25524.222      29.443143      1.1677193    
   1200200   310.19599      738.45928     -931.88232      25626.528      29.482429      1.1630575    
   1200300   301.17399      794.12291     -906.55764      25657.258      29.494209      1.1616645    
   1200400   294.64676      809.1907       962.89357      25273.561      29.346443      1.1793006    
   1200500   302.28557      701.21732      907.84714      25251.472      29.337892      1.1803322    
   1200600   297.06753      715.53902     -1530.8123      25442.739      29.411779      1.171459     
   1200700   295.02547      734.71857     -447.21019      25332.503      29.369239      1.1765567    
   1200800   299.32861      783.82951      2071.7167      25532.539      29.446341      1.1673389    
   1200900   307.30779      772.43852     -2391.4604      25603.933      29.473761      1.1640839    
   1201000   303.40284      776.00254     -3733.3865      25473.407      29.423591      1.1700486    
   1201100   301.56836      706.04516      489.35277      25395.956      29.39374       1.173617     
   1201200   296.8167       718.9276       1156.2788      25625.28       29.48195       1.1631141    
   1201300   297.56167      734.18524      2225.2005      25564.464      29.458609      1.1658811    
   1201400   303.61767      719.51809      1289.4854      25359.556      29.37969       1.1753016    
   1201500   303.89535      771.92021     -932.31187      25380.954      29.387951      1.1743107    
   1201600   309.65483      810.95275      248.14788      25511.367      29.438199      1.1683077    
   1201700   310.16745      786.27625      1229.2476      25556.416      29.455517      1.1662483    
   1201800   295.23018      809.76651     -86.914149      25551.865      29.453768      1.166456     
   1201900   299.45908      732.76445      2155.8182      25283.515      29.350296      1.1788363    
   1202000   297.02648      730.73759      1435.7606      25278.674      29.348422      1.1790621    
   1202100   299.20417      737.02967     -724.54182      25531.389      29.445899      1.1673915    
   1202200   302.63169      790.88407      245.51269      25528.003      29.444597      1.1675463    
   1202300   302.9031       804.24472     -1489.7424      25489.441      29.429763      1.1693126    
   1202400   304.58164      722.52219      252.22113      25585.864      29.466826      1.1649059    
   1202500   300.04899      717.58314      1389.9218      25576.446      29.46321       1.1653349    
   1202600   295.54106      761.48821      1901.7466      25509.049      29.437308      1.1684138    
   1202700   300.81729      731.25741      528.98463      25494.017      29.431524      1.1691027    
   1202800   294.77927      798.68272      336.44223      25757.254      29.532476      1.1571546    
   1202900   306.18123      756.15501      307.59345      25761.014      29.533912      1.1569857    
   1203000   299.80414      819.41585      496.69856      25575.411      29.462813      1.1653821    
   1203100   297.55765      750.56813     -496.40805      25701.693      29.511225      1.1596561    
   1203200   295.24959      730.61251     -244.25426      25730.052      29.522075      1.158378     
   1203300   300.38553      719.15761     -250.18559      25795.062      29.546918      1.1554586    
   1203400   299.14015      781.94356     -1513.7209      25924.722      29.596342      1.1496796    
   1203500   299.58225      800.45701     -887.12416      25956.448      29.60841       1.1482744    
   1203600   305.97274      731.91663      1964.0105      25763.732      29.534951      1.1568636    
   1203700   297.00029      772.56248      95.760106      25453.431      29.415898      1.1709669    
   1203800   297.41721      734.62447      2665.1695      25563.839      29.458368      1.1659096    
   1203900   298.70989      739.69307      667.39197      25770.145      29.537401      1.1565758    
   1204000   301.22526      809.0408      -696.35289      25712.503      29.515362      1.1591686    
   1204100   302.08408      823.84659     -100.04555      25708.746      29.513925      1.159338     
   1204200   297.83356      794.18831     -2575.0873      25944.277      29.603781      1.1488131    
   1204300   294.46257      768.78073      312.79253      25533.356      29.446655      1.1673015    
   1204400   302.52461      708.46424     -239.81106      25462.996      29.419582      1.170527     
   1204500   306.03017      694.17551      932.04003      25543.124      29.450409      1.1668551    
   1204600   298.10738      738.30582      519.73913      25626.036      29.48224       1.1630798    
   1204700   294.97885      677.79981     -1573.5418      25626.055      29.482247      1.163079     
   1204800   296.93551      670.04861     -522.78711      25562.983      29.45804       1.1659486    
   1204900   297.80817      765.37423     -1362.9179      25681.388      29.503452      1.160573     
   1205000   296.42622      796.3805       421.49106      25552.741      29.454105      1.166416     
Loop time of 14227.8 on 1 procs for 1000000 steps with 2828 atoms

Performance: 6.073 ns/day, 3.952 hours/ns, 70.285 timesteps/s
99.8% CPU use with 1 MPI tasks x 1 OpenMP threads

MPI task timing breakdown:
Section |  min time  |  avg time  |  max time  |%varavg| %total
---------------------------------------------------------------
Pair    | 12011      | 12011      | 12011      |   0.0 | 84.42
Bond    | 362.89     | 362.89     | 362.89     |   0.0 |  2.55
Neigh   | 1651.4     | 1651.4     | 1651.4     |   0.0 | 11.61
Comm    | 62.54      | 62.54      | 62.54      |   0.0 |  0.44
Output  | 4.7558     | 4.7558     | 4.7558     |   0.0 |  0.03
Modify  | 117.65     | 117.65     | 117.65     |   0.0 |  0.83
Other   |            | 17.31      |            |       |  0.12

Nlocal:           2828 ave        2828 max        2828 min
Histogram: 1 0 0 0 0 0 0 0 0 0
Nghost:          14015 ave       14015 max       14015 min
Histogram: 1 0 0 0 0 0 0 0 0 0
Neighs:    1.11837e+06 ave 1.11837e+06 max 1.11837e+06 min
Histogram: 1 0 0 0 0 0 0 0 0 0

Total # of neighbors = 1118366
Ave neighs/atom = 395.46181
Ave special neighs/atom = 11.582744
Neighbor list builds = 49780
Dangerous builds = 0
unfix			1
#final
write_data		PVA4_O10_equilibrated.data
System init for write_data ...
Generated 45 of 45 mixed pair_coeff terms from geometric mixing rule

#parameter
neighbor		2.0 bin
Total wall time: 4:24:06
