LAMMPS data file via write_data, version 15 Sep 2022, timestep = 10000000

6064 atoms
13 atom types
6060 bonds
11 bond types
11096 angles
18 angle types
17688 dihedrals
20 dihedral types

62.43886276513861 100.64814523486454 xlo xhi
73.72985876513711 111.93914123486358 ylo yhi
70.07085676513726 108.28013923486374 zlo zhi

Masses

1 1.00794
2 1.00794
3 12.0107
4 12.0107
5 1.00794
6 1.00794
7 1.00794
8 1.00794
9 1.00794
10 15.999
11 15.9994
12 15.9994
13 28.085501

Pair Coeffs # lj/cut/omp

1 0.038 2.44997
2 0.038 2.44997
3 0.039 3.87541
4 0.039 3.87541
5 0.038 2.44997
6 0.038 2.44997
7 0.038 2.44997
8 0 0
9 0.038 2.44997
10 0.228 2.85978
11 0.228 2.85978
12 0.228 2.85978
13 0.04 4.05343

Bond Coeffs # harmonic/omp

1 340.618 1.105
2 340.618 1.105
3 322.716 1.526
4 340.618 1.105
5 340.618 1.105
6 340.618 1.105
7 384 1.42
8 540.634 0.96
9 540.634 0.96
10 833.72 1.208
11 392.8 1.665

Angle Coeffs # harmonic/omp

1 39.5 106.4
2 44.4 110
3 39.5 106.4
4 44.4 110
5 39.5 106.4
6 46.6 110.5
7 44.4 110
8 44.4 110
9 70 109.5
10 46.6 110.5
11 44.4 110
12 58.5 106
13 33.3 113.4
14 39.5 106.4
15 57 109.5
16 57 109.5
17 42.3 113.1
18 31.1 149.8

Dihedral Coeffs # harmonic/omp

1 0.158 1 3
2 0.158 1 3
3 0.158 1 3
4 0.158 1 3
5 0.158 1 3
6 0.158 1 3
7 0.158 1 3
8 0.13 1 3
9 0.158 1 3
10 0.158 1 3
11 0.158 1 3
12 0.158 1 3
13 1 1 3
14 0.13 1 3
15 0.13 1 3
16 0.158 1 3
17 0.158 1 3
18 0.158 1 3
19 0.158 1 3
20 0.3 1 3

Atoms # full

4901 7 3 -0.0510009 63.73513716436871 77.84007546055253 72.06274445840607 0 0 0
974 2 6 0.161706 68.323682022027 77.36067453646262 71.4051517930699 0 0 1
4900 7 9 0.138653 64.4055225708511 77.42416035403014 72.83805599317414 0 0 0
4718 7 9 0.126324 67.88982924444771 79.61532140475265 74.1437863989472 0 0 0
4903 7 1 0.136355 62.7859045127571 77.92603510353277 72.66924733186842 0 0 0
4895 7 4 -0.0864661 63.35963428530952 76.84436952178228 70.96164278548316 0 0 0
4893 7 9 0.131842 63.39410859215842 75.03265133591 72.33868128491206 0 0 0
4894 7 3 -0.0579251 62.706209722198025 75.6709265063184 71.68256371708134 0 0 0
4897 7 6 0.159498 62.58229645393664 77.33279074287914 70.28905115663568 0 0 0
4721 7 1 0.127011 69.05013136179505 79.64598696877813 75.52558749498385 0 0 0
4896 7 1 0.13294 100.17464829403254 76.06062751820755 72.43700444286652 -1 0 0
4871 7 8 0.155245 62.51147590900525 75.40328317655151 75.03366582127538 0 0 0
4902 7 4 -0.0640459 64.1759502998689 79.18161094807257 71.52092265500079 0 0 0
4907 7 9 0.149088 65.38710345056785 79.79049706248655 73.10827577759274 0 0 0
4904 7 6 0.160424 63.33437894364136 79.64095982211512 70.90990396546727 0 0 0
972 2 4 -0.0685202 68.68021562578335 76.6230645856958 70.69914525343219 0 0 1
975 2 11 -0.387985 67.75138296828901 75.58374648365889 70.74423307555303 0 0 1
968 2 11 -0.410932 69.60911891920054 75.61177120257847 73.30658161045643 0 0 1
969 2 8 0.14338 69.08563108977555 74.90681315213054 73.65794825542329 0 0 1
967 2 6 0.145094 69.55168385918127 74.17167155857095 71.90514075361959 0 0 1
965 2 4 -0.100495 70.18222388409124 74.99871368023938 72.16755132060949 0 0 1
966 2 1 0.132277 72.36691552281768 75.34640804304935 72.53090271236883 0 0 1
964 2 3 -0.0565093 71.59211488153339 74.4946873169673 72.54069749414167 0 0 1
960 2 6 0.162203 71.07350280640587 74.47898393813448 74.66388238344936 0 0 1
959 2 1 0.137847 73.43475795385768 74.28043532915373 74.85884699715344 0 0 1
4728 7 1 0.13259 70.0553560902012 78.2273556570222 73.9289797712634 0 0 0
963 2 9 0.129385 72.06262712025779 73.85889764961466 71.82324210019162 0 0 1
958 2 4 -0.0774159 71.56144429466116 73.8302484216686 73.96371530514872 0 0 1
4732 7 9 0.135071 72.54514140220886 78.12188786318005 74.98860562629689 0 0 0
973 2 1 0.128548 70.7465781836132 76.88421000817507 71.36298906952057 0 0 1
4725 7 9 0.129821 69.93877630315998 78.84590465297202 72.27779699611439 0 0 0
4726 7 3 -0.048951 70.39938517641296 79.02853002435211 73.27856433788455 0 0 0
4731 7 8 0.14868 73.34149846173072 77.94209976546092 72.49843731315619 0 0 0
4730 7 11 -0.392909 72.43980592275311 77.78765446071979 72.74164071254313 0 0 0
4733 7 3 -0.0511372 72.55157604717165 79.12490815937146 74.57240356693318 0 0 0
4727 7 4 -0.0723138 71.9540059145738 79.03079220043935 73.17764931424108 0 0 0
957 2 3 -0.0496339 72.92690051977694 111.58524530463123 74.45873767061735 0 -1 1
4735 7 1 0.136505 71.88281684628787 79.57714551591383 75.35225664269456 0 0 0
4734 7 4 -0.0813642 73.83630876786385 79.84314396095779 74.53961124519483 0 0 0
956 2 9 0.135489 73.43937061831461 111.1095908722264 73.63599423990857 0 -1 1
971 2 3 -0.0514105 70.05102346252013 76.005332002781 71.02865446118548 0 0 1
4737 7 11 -0.40405 74.82648662549296 79.12250322433613 73.74603397082495 0 0 0
884 2 11 -0.398109 73.79275599862017 76.62906348585095 107.8466180197703 0 0 0
4738 7 8 0.15552 75.29132539492254 79.82400197894448 73.25785374952113 0 0 0
4740 7 3 -0.0492929 74.42649204577789 80.11263308971436 75.9130277056123 0 0 0
4742 7 1 0.138914 74.22635604780356 79.36787676681753 76.66861210045408 0 0 0
4829 7 8 0.142318 72.42842042989345 76.87951725033744 76.55803737354805 0 0 0
970 2 9 0.127248 70.4220828265969 75.6147693457313 70.09283109477491 0 0 1
885 2 8 0.150325 72.87234428019768 76.39973369862601 107.9213463941501 0 0 0
3690 6 1 0.130841 76.04202565853942 74.07879883311601 71.41912798119289 0 1 0
3683 6 1 0.141497 75.82359795287192 73.80204391849898 74.20062568415946 0 1 0
3680 6 9 0.134974 76.77083165785747 75.1585534405957 73.89155792168413 0 1 0
3685 6 11 -0.394294 78.58134991567786 74.20133009731511 72.57569065044147 0 1 0
1281 2 1 0.136888 80.46867919873871 74.96566845466748 75.66840073636858 -1 0 0
3686 6 8 0.142687 78.30296761137664 74.7393135937015 71.84187591835331 0 1 0
3677 6 6 0.160043 78.61133062618457 74.21441445303455 75.44082647456494 0 1 0
1530 3 11 -0.396703 78.9266564476069 78.83475973763133 73.2895528403899 0 0 0
1531 3 8 0.15197 78.06140668911904 78.86494656219612 73.75610571925922 0 0 0
871 2 8 0.155071 78.98128139922305 75.52191279024115 71.14760399174286 0 0 1
1529 3 6 0.154869 79.97527957786845 79.16956945187452 75.0641300338691 0 0 0
1527 3 4 -0.0769262 80.00233642059295 79.49035340522695 74.04620276238188 0 0 0
870 2 11 -0.392528 79.21342117205164 76.38285435307634 70.81823600539512 0 0 1
3681 6 3 -0.0451754 76.89681751466755 74.08630942590891 74.08094690137725 0 1 0
3675 6 4 -0.0697797 77.52489725774693 73.9281941820312 75.3855853330716 0 1 0
878 2 8 0.142596 77.1100933515121 76.60116535464746 70.6020267839864 0 0 1
1525 3 9 0.135007 81.299702796996 78.09649813229532 72.89076807039683 0 0 0
1526 3 3 -0.0485693 81.31083917069216 79.12578733398385 73.37740809797072 0 0 0
4739 7 9 0.133043 75.48363635219314 80.08262149388199 75.9602011628721 0 0 0
877 2 11 -0.394397 76.70341363420188 77.15873723936227 108.14250661813017 0 0 0
5080 8 1 0.133059 77.10504681934492 79.48080122231133 70.5820555859009 0 0 1
6064 20 10 0 77.56863810694655 78.8071619800266 76.33174461132111 -1 2 1
6063 20 10 0 77.42922874675114 77.9538759261758 75.5077844228005 -1 2 1
3678 6 11 -0.392076 76.80692103111215 74.85725357939353 76.2671864209429 0 1 0
868 2 1 0.133064 80.22735002488577 74.35647564050075 108.06620030905374 0 0 0
1279 2 3 -0.0463547 81.55772568470135 74.93533994580243 75.73993082752547 -1 0 0
1524 3 8 0.159051 82.06484245843208 77.67321739093579 75.41143933707644 0 0 0
1284 2 8 0.152258 82.0662622444948 75.75965187057754 73.26282129019181 -1 0 0
1278 2 9 0.13502 81.91033385501599 75.96689307163767 75.71796191191133 -1 0 0
1283 2 11 -0.392851 81.46580838468792 75.07185178410073 73.40370135670283 -1 0 0
1528 3 1 0.131983 81.4078743147562 79.82323092671172 72.56665636062495 0 0 0
1523 3 11 -0.391528 82.10374073944789 78.60916125187663 75.62059831813157 0 0 0
1520 3 4 -0.0740518 82.51948117825776 79.16940826587647 74.3586340141805 0 0 0
1511 3 9 0.13507 85.16357107221222 76.40524459409606 75.15379397228297 0 0 0
1512 3 3 -0.0464524 85.74734087077205 77.22138456054331 74.65632107585385 0 0 0
1513 3 4 -0.08012320000000001 84.89118867054803 78.5128971689018 74.81580568957452 0 0 0
1514 3 1 0.130159 86.00545239000928 76.9320417163844 73.6680493982571 0 0 0
1506 3 4 -0.077296 87.07650266219184 77.23404121558687 75.48729377560831 0 0 0
1518 3 9 0.128133 83.32661946556932 77.39094637050077 73.69612995923613 0 0 0
1519 3 3 -0.0551556 83.71625209016666 78.39213776242354 73.87758549120451 0 0 0
807 2 11 -0.393415 85.20421174080008 75.71780501901347 71.52680374928487 0 0 1
1521 3 1 0.134025 84.12787770095352 78.83016611601674 72.96928081284707 0 0 0
810 2 3 -0.0464543 87.60098847856192 75.26516021276032 71.15196571919562 0 0 1
1516 3 11 -0.396369 85.56038976983224 79.75080668219988 74.45159987856923 0 0 0
809 2 9 0.135067 87.99822844393061 76.04483392367713 71.76113881526076 0 0 1
1504 3 9 0.139549 87.2535144879705 75.08857098728325 75.587491174656 0 0 0
1517 3 8 0.152939 86.2024165082597 79.82371006885961 75.07534318548781 0 0 0
1515 3 6 0.157913 84.63879381641623 78.58408709236038 75.86833362087886 0 0 0
1508 3 6 0.154372 87.62763475354525 78.14836350529936 75.14780449230676 0 0 0
802 2 9 0.139543 86.25428445654815 77.81696155482405 70.80477725612587 0 0 1
1522 3 6 0.152202 82.8494151527266 80.24945501947661 74.58357626837683 0 0 0
804 2 4 -0.077303 86.2232535791746 75.72492996029082 70.58666840519328 0 0 1
808 2 8 0.154879 85.47865954685271 75.11882599195518 72.1804036987985 0 0 1
803 2 3 -0.0403422 86.49773566938954 77.06841795459407 108.24984636255844 0 0 0
1505 3 3 -0.0403431 87.88937837500544 75.95010968853042 75.27219168021729 0 0 0
812 2 1 0.130158 88.20840937521214 75.39423178030596 70.2599289216816 0 0 1
1507 3 1 0.140092 88.13042361747907 75.70422501511251 74.27076915292912 0 0 0
1459 3 6 0.157608 88.4593250784861 79.58140609632157 70.67577503211405 0 0 0
1471 3 4 -0.0745963 91.92409323454767 76.00371965983148 71.8479427728476 0 0 0
1473 3 6 0.161625 91.2271003173984 75.54098030832212 72.56253894013197 0 0 0
1470 3 3 -0.0435628 91.83788861701505 77.52728527309084 72.16816763894089 0 0 0
1500 3 1 0.13545 89.81023498788915 74.13111597947918 75.3424195247719 0 0 0
1469 3 9 0.132608 92.07086989430148 77.68437530872477 73.2461487588044 0 0 0
1463 3 3 -0.0436533 90.45720567868581 79.55735811781624 71.68119813151775 0 0 0
1464 3 4 -0.077046 90.40072598516163 77.99208928477687 71.75632605989802 0 0 0
1467 3 11 -0.395985 89.410964469989 77.69343794992321 72.75102717756711 0 0 0
1468 3 8 0.144351 89.77538376631698 76.9721682592952 73.28012884171694 0 0 0
1472 3 1 0.135613 92.60171479444152 78.02018428012579 71.52671299924695 0 0 0
1462 3 9 0.132002 90.26087229141264 79.96096641572458 72.68857926271946 0 0 0
1486 3 1 0.135286 91.84353839682515 74.82757033174977 74.33974430046109 0 0 0
1477 3 3 -0.0467332 93.24107584573335 75.17841761940134 72.12802613215862 0 0 0
1487 3 6 0.151444 93.33285229082608 75.31578037943595 76.2225417143893 0 0 0
1502 3 11 -0.392874 90.18299985060553 76.61800269509123 75.37953819912245 0 0 0
1503 3 8 0.157012 89.7423860439482 76.7869365520692 74.53176032823949 0 0 0
1480 3 6 0.161267 93.76115919288361 76.11119839009936 73.97778086308143 0 0 0
1457 3 4 -0.077124 89.39452845057332 80.10808252605064 70.71616570282913 0 0 0
1478 3 4 -0.0717782 93.67669084028768 75.08299675150704 73.56533736175312 0 0 0
1498 3 3 -0.056234 89.66769093635637 74.5444524513818 76.37427258713414 0 0 0
1466 3 6 0.161726 90.02384164567106 77.51853584291814 70.82741276000948 0 0 0
1476 3 9 0.131067 94.08384915882537 75.63384596067957 71.58795039211027 0 0 0
1484 3 3 -0.0497805 92.76655627501745 74.23102572192482 74.44619442487496 0 0 0
1479 3 1 0.134699 93.00305398766952 74.21095973353827 71.70839015792173 0 0 0
1499 3 4 -0.0765401 89.18771829786758 75.90479381178852 76.07943600494266 0 0 0
1465 3 1 0.136771 91.36899779925011 79.87407277849756 71.18262711015967 0 0 0
816 2 9 0.128135 89.55182567935438 74.12421109487478 72.73279856880049 0 0 1
1485 3 4 -0.0862004 93.17948012231739 74.25580549502935 75.95621747085329 0 0 0
1483 3 9 0.135919 92.5341805132905 111.49769687256175 73.97613501393396 0 -1 0
1491 3 3 -0.0516541 92.10934903181575 111.77779946462887 76.83016935344352 0 -1 0
1497 3 9 0.130128 88.85936939136609 73.93787457711542 76.84093019223708 0 0 0
1474 3 11 -0.399965 91.51278886100347 75.7732606779055 70.49346704018316 0 0 0
3525 6 8 0.13947 98.99874174032199 78.68718235124969 74.20790177030922 -1 0 0
3524 6 11 -0.39927 98.84579263461652 77.78198945144142 74.56757460603147 -1 0 0
3521 6 4 -0.07128379999999999 97.62630686509043 77.30037919227729 74.08366312872498 -1 0 0
3520 6 3 -0.0313784 96.98915631223547 78.23334110833581 73.13532449765889 -1 0 0
3523 6 6 0.160209 97.84110322879462 76.37395440196461 73.4621577395247 -1 0 0
3519 6 9 0.139817 95.93708074619104 77.8914687785948 72.792291076432 -1 0 0
3513 6 4 -0.0482313 97.7399057093303 78.4912489301142 71.88358648863584 -1 0 0
3517 6 11 -0.385921 97.63140448597487 77.2841162609489 71.10450726130411 -1 0 0
3527 6 3 -0.0489849 96.67637037445104 76.89519515163265 75.23357015086704 -1 0 0
3529 6 1 0.136731 95.58978641247232 77.01285456930985 74.92289533413802 -1 0 0
3526 6 9 0.132768 96.7673751444536 75.83944074103375 75.39741445857646 -1 0 0
4890 7 6 0.151756 99.61306529982407 75.4427480936007 108.20537739103328 -1 0 -1
3516 6 6 0.168663 98.78173837190249 78.81802767575064 72.12754111872948 -1 0 0
4888 7 4 -0.0762811 100.17062336665775 74.76406766894183 70.62469739243824 -1 0 0
4886 7 9 0.136928 98.42505454839771 74.20208742830276 71.69047655638414 -1 0 0
4870 7 11 -0.393691 99.91153473368013 74.92727809798187 74.87935015448195 -1 0 0
4954 8 1 0.133356 99.52846457429301 79.82599150969133 76.2053047147574 -1 0 1
4887 7 3 -0.05383 99.2205935938788 73.7644162069606 71.19933949515224 -1 0 0
4867 7 4 -0.0687121 99.6280490620539 73.95894587108737 75.8862697378307 -1 0 0
1481 3 11 -0.408022 94.94330033725608 74.45698068450791 73.48732805046009 0 0 0
1482 3 8 0.134107 94.80594929784927 73.79315260151023 72.8646441435682 0 0 0
3530 6 6 0.160874 96.865731088341 78.84919733250135 76.26565346446222 -1 0 0
3528 6 4 -0.07079539999999999 96.85855559013432 77.79592193672545 76.43083693674804 -1 0 0
3536 6 1 0.131846 94.78077519039977 77.77621591217392 76.76945543165837 -1 0 0
4951 8 9 0.132021 62.88565016789369 80.36153047965796 76.08657745336333 0 0 1
4719 7 3 -0.0582555 68.73656101043188 80.19152098756645 74.6368804854701 0 0 0
4717 7 8 0.139342 66.68268945774854 80.10114842652168 75.54438446779726 0 0 0
4908 7 3 -0.0436097 64.5049042117248 80.179927406382 72.62719683967691 0 0 0
4910 7 1 0.146294 63.78480480075597 80.11785145774765 73.41435344217315 0 0 0
4914 7 8 0.159545 64.19930369803204 83.30829343371867 72.65110347053422 0 0 0
4912 7 11 -0.390073 64.5155849887684 82.53726099606843 73.1535779144963 0 0 0
4713 7 4 -0.0921947 67.97799743111555 81.49409944170695 74.98839650456136 0 0 0
4715 7 6 0.150354 67.55505097449199 81.92141626118965 74.02125947693696 0 0 0
5116 8 6 0.158704 66.1947016739878 85.20255985042483 73.74102912268302 0 0 1
5123 8 6 0.161541 64.77576430335512 84.92318596409076 75.6020204545253 0 0 1
5110 8 11 -0.397625 67.64908401475867 84.45128534713743 72.12093029065366 0 0 1
5114 8 4 -0.08068 66.57483730701975 86.18912360247921 74.05101853993447 0 0 1
5129 8 1 0.127573 63.78798615159197 86.2730645761164 73.98979495533112 0 0 1
4716 7 11 -0.408188 66.8930134486685 81.02637717365826 75.84301348077187 0 0 0
5113 8 3 -0.0461975 68.10468818104509 86.16049875042276 73.84172064924329 0 0 1
5121 8 4 -0.0746975 64.75514474923327 86.00217862513318 75.76740510999419 0 0 1
5206 8 1 0.135884 66.04419233523186 85.59552626244519 70.43101534956939 0 0 1
5127 8 3 -0.0506442 63.59959029293675 86.55054227714392 74.99190821987965 0 0 1
5122 8 1 0.131064 66.78932355639472 85.95465431023071 76.17645630867503 0 0 1
4909 7 4 -0.0548367 64.68025379797353 81.6331351235568 72.06656052855848 0 0 0
5111 8 8 0.153597 67.47137859045817 83.99491102132738 72.99843095136684 0 0 1
4712 7 3 -0.0548466 68.73004226685791 82.5844854026458 75.7317472967913 0 0 0
5126 8 9 0.133711 62.71516448886267 85.9537387754429 75.1735248818763 0 0 1
5213 8 1 0.13429 63.3636282339709 85.16818103908663 71.13332082114232 0 0 1
4948 8 6 0.151852 100.41440216786648 82.55153332885017 75.03481476204165 -1 0 1
5118 8 8 0.144406 65.49279560139094 87.71075151050653 73.76096083981965 0 0 1
4714 7 1 0.130689 68.06688279019144 83.52725694257937 75.66106903443728 0 0 0
4911 7 6 0.162446 65.62178315827688 81.69737588233203 71.48087641206227 0 0 0
4913 7 7 0.162926 63.93995156112162 81.8716140413857 71.34833117189078 0 0 0
5211 8 3 -0.0514923 63.187871252807575 85.75661133764267 70.21210568837917 0 0 1
5115 8 1 0.133878 68.64406292793947 85.51582596046484 74.62669658324502 0 0 1
5107 8 4 -0.0827499 68.41467640510311 85.60191791432158 72.48498629238276 0 0 1
4711 7 9 0.134889 69.62779442311498 82.85895527978082 75.17019095673554 0 0 0
4950 8 8 0.140908 98.25113086904054 80.86216294858905 74.34845823036419 -1 0 1
4949 8 11 -0.407252 99.092595697157 81.19647176499801 74.10034323762663 -1 0 1
5109 8 6 0.154442 68.22204120796951 86.38192343421953 71.81021600568943 0 0 1
5120 8 3 -0.0498184 66.13350509996339 86.5178360309376 75.43929071556971 0 0 1
4724 7 8 0.155499 70.17771578718688 80.98798232197397 71.79679153020628 0 0 0
4723 7 11 -0.389601 69.57780054912637 81.10625772412605 72.54438571108011 0 0 0
4720 7 4 -0.0732009 69.92343573186092 80.41704022598954 73.69035187458431 0 0 0
4729 7 6 0.144765 72.27296396091283 79.80234394081808 72.53269605639527 0 0 0
4722 7 6 0.156082 70.67216348149425 80.96718706742934 74.292613727367 0 0 0
5108 8 1 0.136324 70.06351023823326 84.23751941875993 73.21085339341188 0 0 1
5106 8 3 -0.0390645 69.89691472476007 85.10591824347875 72.53659685201313 0 0 1
5099 8 3 -0.0459788 71.95843582600352 84.38363742108555 71.2380686067929 0 0 1
5100 8 4 -0.08451880000000001 70.42287973593234 84.63964087801376 71.1713957764256 0 0 1
5098 8 9 0.134868 72.41873676866234 85.34544350937881 71.42790673476381 0 0 1
4753 7 9 0.128014 74.15164850018597 85.5028031672192 74.85763662228531 0 0 0
5101 8 1 0.137251 72.20369949534245 83.6208838242493 72.09833710681376 0 0 1
4754 7 3 -0.0512813 73.90376139313256 85.23924122989585 75.89861253200134 0 0 0
4760 7 9 0.129319 71.05906751907597 85.6109225742496 75.86645941569425 0 0 0
5086 8 4 -0.07716489999999999 73.93395115435993 81.93243184622659 70.8498439314816 0 0 1
5088 8 6 0.15713 73.48647522840736 81.9453592725668 71.8142597633164 0 0 1
4736 7 6 0.155375 73.65476047703578 80.79796034435563 74.07565884999138 0 0 0
5102 8 6 0.148876 69.95964892666873 83.6992687194955 70.85789801643766 0 0 1
4761 7 3 -0.0532946 71.68290672194493 86.49871679701675 75.9478022529989 0 0 0
5105 8 9 0.141828 70.53461243705468 85.92711222404279 72.86341830130846 0 0 1
4763 7 1 0.130419 71.9328607341903 86.75288582274149 74.89271099095014 0 0 0
5103 8 11 -0.396324 70.07461333422995 85.62984369160692 70.24722151051036 0 0 1
5090 8 8 0.142623 73.17721291531811 80.16327411618657 70.72031492547683 0 0 1
5089 8 11 -0.394331 73.30547154120592 80.87462962861524 70.10153614241347 0 0 1
4756 7 1 0.131274 74.85904931026765 85.34116197479085 76.47176464021122 0 0 0
4746 7 9 0.138999 74.55415536361295 82.78066886539851 74.81047619954015 0 0 0
4747 7 3 -0.0442507 74.39535382328033 82.79688500824568 75.91104830371049 0 0 0
4743 7 6 0.152824 72.8609458310112 81.4654307685661 76.39808849219072 0 0 0
4748 7 4 -0.07242899999999999 73.28379377519445 83.8950656512485 76.09309564609887 0 0 0
4741 7 4 -0.0826814 73.96275812192923 81.4386127113451 76.51954722153384 0 0 0
5094 8 1 0.131423 74.54655163301823 84.04724105151341 70.46383597051154 0 0 1
5087 8 1 0.14159 75.31888617645201 80.5812715972417 71.6235007690037 0 0 1
5085 8 3 -0.0452475 75.3909410798482 81.57633026534147 71.18121421559631 0 0 1
5084 8 9 0.134923 75.70999720584098 82.27050441302883 71.9841258485104 0 0 1
1538 3 8 0.142372 77.60773193645291 80.52987769619894 73.81508238013542 0 0 0
1534 3 4 -0.0815683 78.77838449524991 81.65467027068728 74.86452808435423 0 0 0
1536 3 6 0.149471 78.90000568961875 81.26346709248884 75.83439910759827 0 0 0
1540 3 3 -0.0418634 78.80087652839208 83.15171755797006 75.01457394597892 0 0 0
1533 3 3 -0.0470712 79.89041752913734 81.0359878603718 73.97110847247531 0 0 0
1532 3 9 0.139318 79.76376512231174 81.44415496395506 72.97208095425437 0 0 0
1544 3 11 -0.391563 79.5519673102899 83.90687348940145 72.87486302858672 0 0 0
1541 3 4 -0.0767853 78.47658396259106 83.91318858700485 73.77798012707247 0 0 0
1543 3 6 0.15598 77.57223896031256 83.4317188557125 73.32101681056247 0 0 0
1545 3 8 0.155583 79.28952848986022 84.18605925997397 71.96956057072393 0 0 0
1542 3 1 0.132301 78.12812334043848 83.45338737271656 75.8334236699919 0 0 0
1539 3 9 0.134799 79.8387536395836 83.4632283690901 75.28878512462809 0 0 0
1537 3 11 -0.405608 77.45245775919825 81.33013802093642 74.42060544574264 0 0 0
1547 3 3 -0.0470816 78.13794967444022 85.36724795760091 74.04890402630885 0 0 0
5077 8 9 0.133683 77.75881442571307 80.80240340096125 71.53906220243324 0 0 1
1549 3 1 0.133345 77.6747344730118 85.551427198811 74.98648655994626 0 0 0
1550 3 6 0.16124 76.31873915736591 85.5847658803401 73.18730777304498 0 0 0
5078 8 3 -0.0422871 77.52891969319448 80.4848874093634 70.52529070056082 0 0 1
1535 3 1 0.132352 80.83923797996846 81.54467331902555 74.20975062571353 0 0 0
5075 8 11 -0.396392 79.88200222600217 79.67565004996075 70.26218619658171 0 0 1
1548 3 4 -0.07128859999999999 77.2623388684464 86.08331428392414 73.06725511939523 0 0 0
1552 3 8 0.159448 78.6825734564064 85.750677998643 71.86548609493663 0 0 0
1546 3 9 0.132279 79.10431184691912 85.94539657818902 74.1841095625842 0 0 0
1551 3 11 -0.388532 77.73975859054836 85.7187110766885 71.79008198266541 0 0 0
4749 7 1 0.137623 75.36380805653003 83.06488895008862 76.34123362664464 0 0 0
1628 3 11 -0.396705 81.39182081233213 85.7955843050139 74.313175034653 0 0 0
1451 3 1 0.135456 86.52001521687869 80.86139918312435 72.05113798236916 0 0 0
1629 3 8 0.148607 82.26684226557032 85.46656203098664 74.1984702340592 0 0 0
1427 3 9 0.135252 81.54463435468146 85.25620939459786 71.51714434482432 0 0 0
1440 3 8 0.140906 82.42992537114402 84.57365650747987 72.94067584027962 0 0 0
1442 3 3 -0.0467701 84.38923410090875 82.11355111965932 72.57130991544713 0 0 0
1443 3 4 -0.0738535 85.75850654941065 82.76967943733526 72.46918839110572 0 0 0
1445 3 6 0.163518 85.73831571120223 83.73448940090243 71.92245611852825 0 0 0
1436 3 4 -0.0841711 83.19984865747874 83.00642539098024 72.17757438475282 0 0 0
1446 3 11 -0.398436 86.24812409574936 83.04515996699523 73.81236921760829 0 0 0
1439 3 11 -0.407255 83.3508524226652 84.32793939863483 72.7028543856204 0 0 0
1449 3 3 -0.0442857 86.81115861388982 81.83813289845868 71.76003597802327 0 0 0
1447 3 8 0.148865 86.50264641403048 82.22170217695523 74.08474901302083 0 0 0
1444 3 1 0.133354 84.1149299250431 81.76941661721838 73.58331962056438 0 0 0
1438 3 6 0.151853 82.26432093154631 82.60573075008658 72.67623478349694 0 0 0
1448 3 9 0.137465 86.55086288482968 81.94779202678345 70.65439933948277 0 0 0
1441 3 9 0.132019 84.37524372053015 81.21803334775893 72.01589325682833 0 0 0
688 1 9 0.134805 87.28004727689215 85.59326652789154 71.91651817080648 0 0 0
1428 3 3 -0.0505674 81.77828976156748 85.15237335950184 70.45172633201426 0 0 0
2357 4 6 0.156712 85.25148352493211 82.24372798895651 76.27910207803251 0 0 0
1435 3 3 -0.0504151 83.05468750876824 82.9418368031537 70.60143725892574 0 0 0
1431 3 6 0.158465 80.77954134041428 83.19751271807654 70.32422574804644 0 0 0
1434 3 9 0.132207 83.94927173273827 83.26596492010817 108.24374298114763 0 0 -1
1437 3 1 0.135083 82.92040961368772 81.85000778880224 70.31414820699771 0 0 0
1429 3 4 -0.0815094 81.78907103655384 83.67570294526415 70.09361899671545 0 0 0
1430 3 1 0.131842 82.80284291502842 85.52315702443629 70.29075998016982 0 0 0
684 1 1 0.133757 87.91742331611768 85.42670934062542 74.09563144252701 0 0 0
691 1 1 0.139894 88.36188432535953 86.8230971299959 71.29257577147031 0 0 0
681 1 9 0.133057 88.63207978652781 86.61666860983546 75.05520450130093 0 0 0
689 1 3 -0.0469884 87.46382860565397 86.71264331003039 71.86952489439312 0 0 0
2358 4 11 -0.398691 83.32682597064108 82.01277811019197 76.47863076107238 0 0 0
2353 4 9 0.137089 84.18098470479993 84.51091303876574 76.55893012684339 0 0 0
2352 4 8 0.144767 85.46939244564368 85.88432046295294 76.42765660278671 0 0 0
657 1 6 0.164298 92.47328877039575 79.36702671121377 75.13954573202199 0 0 0
655 1 4 -0.0685619 91.76544999492958 79.88503000197824 75.77718117438826 0 0 0
658 1 11 -0.393583 90.47610794056993 79.76350376109545 75.18764786781288 0 0 0
659 1 8 0.155346 90.59343261606283 80.26706951847291 74.42708757182442 0 0 0
1453 3 11 -0.394161 88.41857528263512 83.42447328483024 71.98060423987359 0 0 0
1452 3 6 0.164697 88.55443416253854 81.49055353702872 72.8984459452271 0 0 0
1450 3 4 -0.0692813 88.3053417331969 82.05133293745374 71.90314137477758 0 0 0
1454 3 8 0.143626 88.07910471164041 83.77894805798962 71.11211472106318 0 0 0
1455 3 9 0.132429 90.34496024392121 81.94274795591619 70.84875093344088 0 0 0
1456 3 3 -0.0523653 89.26570064186497 81.58477057599795 70.83180512474841 0 0 0
664 1 6 0.150755 90.86692389958587 81.97783979455856 74.37466304701879 0 0 0
662 1 4 -0.0757468 91.94536566800282 81.9422846718233 74.6320692055615 0 0 0
677 1 1 0.135516 89.8991621261017 84.1637705271249 74.52034912053358 0 0 0
675 1 3 -0.0540661 90.7112814525182 84.97872102948752 74.39901664490206 0 0 0
674 1 9 0.136607 90.90574438141284 85.39956849338549 75.42524221261912 0 0 0
669 1 4 -0.08053449999999999 91.97035474595216 84.32887644137814 73.77140432487572 0 0 0
672 1 11 -0.406254 91.60754820644082 83.70808179405964 72.53858006787222 0 0 0
671 1 6 0.148833 92.75614669879137 85.10460946649114 73.66757279725444 0 0 0
668 1 3 -0.0547835 92.5829139859658 83.32509182241819 74.72654831007473 0 0 0
673 1 8 0.136101 92.37736344318087 83.33133615644056 72.07344634148859 0 0 0
670 1 1 0.132114 92.69644179720537 83.66810541176942 75.78866008837606 0 0 0
661 1 3 -0.0501357 92.25012084803733 81.28843117278326 75.97620840819545 0 0 0
665 1 11 -0.392064 92.60374331539425 81.250300093691 73.60766592047369 0 0 0
676 1 4 -0.0763117 90.07360960383586 86.13121122975039 73.60881068891986 0 0 0
682 1 3 -0.0526563 88.61652504001344 86.30402243509533 74.01228525149168 0 0 0
678 1 6 0.15168 90.21360659002607 85.88550957988322 72.53522148243005 0 0 0
666 1 8 0.155711 92.25892205552776 80.39091196120519 73.82453622775104 0 0 0
667 1 9 0.134021 93.66369575738698 83.11309671717058 74.52016821942674 0 0 0
663 1 1 0.139406 91.73282876663103 81.80091133454692 76.84151947913897 0 0 0
3522 6 1 0.136743 96.89850295831575 79.1962369577471 73.68307383844791 -1 0 0
3512 6 3 -0.0406252 96.95555498222176 79.64833401975426 71.2152300528772 -1 0 0
3515 6 2 0.148333 97.42764058538128 80.10588063991808 70.31927391524707 -1 0 0
3511 6 9 0.155224 95.98941472145864 79.28994528940515 70.86097313725264 -1 0 0
4952 8 3 -0.0467711 100.09756145712312 80.75510263974263 76.27583051591422 -1 0 1
4946 8 4 -0.0841731 99.61324317443204 81.87305749104003 75.26539119690634 -1 0 1
4943 8 8 0.156779 99.60834477971927 85.16673857800477 74.71769700339144 -1 0 1
3514 6 1 0.156384 96.8014121657939 80.54418746449818 71.91967371725805 -1 0 0
4941 8 6 0.158467 97.62211831676542 83.26236900404496 73.85844438805657 -1 0 1
4938 8 3 -0.0505673 97.2075309796065 84.89987273506223 75.27329911350604 -1 0 1
4939 8 4 -0.0815102 98.09164205519983 83.78656981357277 74.71287262420527 -1 0 1
4937 8 9 0.135251 96.4238219410122 84.41327189972458 75.8617951405069 -1 0 1
4945 8 3 -0.050417 98.48698721012616 82.762784990527 75.7772021888703 -1 0 1
4940 8 1 0.131846 97.70849551087406 85.4739136741048 76.00002661958501 -1 0 1
4942 8 11 -0.393708 99.31812676589985 84.38281383580656 74.21413827712718 -1 0 1
4935 8 11 -0.401854 95.39535697411635 84.96198024442869 73.5759639601622 -1 0 1
4944 8 9 0.132213 97.69992790900916 82.07940355497698 76.1296357090208 -1 0 1
4932 8 4 -0.0707957 96.46553750742761 85.70400172844806 74.20119329989178 -1 0 1
4936 8 8 0.147733 95.59363069541155 84.8114241386307 72.64298013600569 -1 0 1
5220 8 1 0.134563 99.05447957986541 85.27208740266214 71.56449057915354 -1 0 1
5224 8 9 0.133721 97.21118937484032 83.54321528357133 70.6706717049321 -1 0 1
4934 8 6 0.160869 97.1803156902776 85.99592919217105 73.48318687011306 -1 0 1
5218 8 3 -0.0505824 98.83945795440123 85.79007072472442 70.60866706269293 -1 0 1
4947 8 1 0.135088 98.77851826828693 83.2189466523823 76.68687078567987 -1 0 1
5221 8 6 0.161647 96.73445352245102 85.86920039294557 70.8322199891741 -1 0 1
4930 8 9 0.132772 95.04845222742826 86.41841622326905 75.75914464507018 -1 0 1
5231 8 9 0.131572 95.6261314520844 81.8472162503829 107.88450625323865 -1 0 0
5117 8 11 -0.397395 65.99363003534503 87.15031696898555 73.16768239756152 0 0 1
5210 8 9 0.136112 63.22478725433474 86.82643673450639 70.57751306722717 0 0 1
5119 8 9 0.13531 66.21039577031965 87.64316242331729 75.63031809882297 0 0 1
5128 8 4 -0.076406 63.270402991370545 88.00414369134673 75.21215434018646 0 0 1
5144 8 6 0.155914 63.99604834661254 89.02081849867591 72.53478355760063 0 0 1
5142 8 4 -0.0686809 63.73667385163113 90.05411513177383 72.42332391570848 0 0 1
5145 8 11 -0.39294 64.4824387170473 90.84243535708106 73.35347380044166 0 0 1
5146 8 8 0.14897 64.72097340919152 90.28963259083325 74.10696617119059 0 0 1
5151 8 6 0.153648 66.03678758994096 91.4865431128618 71.28378638269311 0 0 1
5007 8 9 0.130133 67.9126272400857 90.01324422755178 73.3537943076239 0 0 1
5148 8 3 -0.038628 64.1182196946261 90.44241579938455 70.96363415461329 0 0 1
5149 8 4 -0.0717719 65.6927933907797 90.57454650036982 70.79755498646162 0 0 1
5152 8 11 -0.389221 66.29793847075423 89.38715073206545 71.32168915323584 0 0 1
5130 8 6 0.160247 64.11473288150863 88.64299004644944 74.94746906364297 0 0 1