LAMMPS data file via write_data, version 15 Sep 2022, timestep = 2500044

6064 atoms
13 atom types
6060 bonds
11 bond types
11096 angles
18 angle types
17688 dihedrals
20 dihedral types

62.43886276513861 100.64814523486454 xlo xhi
73.72985876513711 111.93914123486358 ylo yhi
70.07085676513726 108.28013923486374 zlo zhi

Masses

1 1.00794
2 1.00794
3 12.0107
4 12.0107
5 1.00794
6 1.00794
7 1.00794
8 1.00794
9 1.00794
10 15.999
11 15.9994
12 15.9994
13 28.085501

Pair Coeffs # lj/cut/coul/cut/omp

1 0.038 2.44997
2 0.038 2.44997
3 0.039 3.87541
4 0.039 3.87541
5 0.038 2.44997
6 0.038 2.44997
7 0.038 2.44997
8 0 0
9 0.038 2.44997
10 0.228 2.85978
11 0.228 2.85978
12 0.228 2.85978
13 0.04 4.05343

Bond Coeffs # harmonic/omp

1 340.618 1.105
2 340.618 1.105
3 322.716 1.526
4 340.618 1.105
5 340.618 1.105
6 340.618 1.105
7 384 1.42
8 540.634 0.96
9 540.634 0.96
10 833.72 1.208
11 392.8 1.665

Angle Coeffs # harmonic/omp

1 39.5 106.4
2 44.4 110
3 39.5 106.4
4 44.4 110
5 39.5 106.4
6 46.6 110.5
7 44.4 110
8 44.4 110
9 70 109.5
10 46.6 110.5
11 44.4 110
12 58.5 106
13 33.3 113.4
14 39.5 106.4
15 57 109.5
16 57 109.5
17 42.3 113.1
18 31.1 149.8

Dihedral Coeffs # harmonic/omp

1 0.158 1 3
2 0.158 1 3
3 0.158 1 3
4 0.158 1 3
5 0.158 1 3
6 0.158 1 3
7 0.158 1 3
8 0.13 1 3
9 0.158 1 3
10 0.158 1 3
11 0.158 1 3
12 0.158 1 3
13 1 1 3
14 0.13 1 3
15 0.13 1 3
16 0.158 1 3
17 0.158 1 3
18 0.158 1 3
19 0.158 1 3
20 0.3 1 3

Atoms # full

4895 7 4 -0.0864661 63.806220636580186 77.28694936561752 73.26236888339739 0 0 0
4897 7 6 0.159498 64.0444310079831 76.38706773492869 73.79318271156366 0 0 0
4901 7 3 -0.0510009 65.04569016295738 78.17317736811793 73.41941297285042 0 0 0
4903 7 1 0.136355 65.27024422926031 78.05803194924229 74.47678622539819 0 0 0
4900 7 9 0.138653 65.93374468220884 77.67866585287797 72.92659217876451 0 0 0
4896 7 1 0.13294 64.40938210491072 76.8822671381455 71.27256798606379 0 0 0
939 2 6 0.151535 67.06415927380087 76.23269548092908 75.18742694612753 0 0 1
4894 7 3 -0.0579251 63.408497436546305 77.04080576482392 71.78766412092132 0 0 0
4893 7 9 0.131842 62.812384146206675 77.89170766444228 71.244570671179 0 0 0
937 2 4 -0.0838402 66.79603035984785 75.34459945736802 75.83118481343597 0 0 1
4891 7 11 -0.406353 63.375407995090264 74.60599186905868 72.30913574455626 0 0 0
4912 7 11 -0.390073 67.69730183266181 78.99336303556991 73.88232662435834 0 0 0
4902 7 4 -0.0640459 64.91843543948946 79.61730707892367 72.99743888732888 0 0 0
933 2 11 -0.397044 66.56857361633001 74.9357526884168 72.90715671336628 0 0 1
934 2 8 0.148256 66.4309349989163 74.69574707698663 72.00476358339341 0 0 1
4898 7 11 -0.398802 62.634140702542105 77.75267206834774 73.925257806659 0 0 0
4899 7 8 0.139892 62.61146562507304 77.28629148923363 74.78175660658812 0 0 0
936 2 3 -0.0484258 67.25603501965222 74.14122037212076 74.97227607000178 0 0 1
4904 7 6 0.160424 63.976037716278036 80.0185779001489 73.52527829004444 0 0 0
940 2 11 -0.395531 65.37029029978143 75.20222324291278 76.08001918961662 0 0 1
4888 7 4 -0.0762811 62.60212724471923 75.72307955831413 71.73849132006737 0 0 0
941 2 8 0.143003 64.93676987874971 75.34808014857778 75.22878058603594 0 0 1
4914 7 8 0.159545 67.56040028904559 79.27897019294511 74.78677570950796 0 0 0
4892 7 8 0.137333 63.96536919312777 74.21232697229573 71.63552974360545 0 0 0
4905 7 11 -0.391871 64.81144094495306 79.7710258266338 71.55521025700003 0 0 0
935 2 9 0.135449 68.29923749502358 74.31374263475094 74.69498471188682 0 0 1
980 2 1 0.137197 68.67310913296622 77.26643429762774 72.15320729274528 0 0 1
4906 7 8 0.155879 65.67123568034432 79.79549960085724 71.22809831251604 0 0 0
930 2 4 -0.07840999999999999 66.4265875428786 73.8419428670429 73.77125273307564 0 0 1
4717 7 8 0.139342 68.30963217690929 80.02789736560959 76.31253914075663 0 0 0
981 2 6 0.162042 67.67679959606924 77.53797556732472 70.12474611258564 0 0 1
983 2 8 0.155975 67.33203531508362 75.66807917114224 70.38647774348311 0 0 1
982 2 11 -0.38539 68.1748068391066 75.59854663331183 108.13368102909442 0 0 0
948 2 8 0.146734 68.89276332401954 77.34017417204959 75.97567262422307 0 0 1
947 2 11 -0.398471 69.35967003214654 76.51808446174633 75.84010374137978 0 0 1
978 2 3 -0.0442676 69.37598424360893 77.37801331715148 71.29971472082384 0 0 1
977 2 9 0.136734 69.45676290196826 78.51104654190426 71.33039066801844 0 0 1
973 2 1 0.128548 70.44549463289877 76.54368551208778 73.57251879844885 0 0 1
970 2 9 0.127248 71.25026588336894 78.0027368132198 72.95818471659057 0 0 1
971 2 3 -0.0514105 71.20392789388123 76.95615548809063 72.87284746170937 0 0 1
965 2 4 -0.100495 72.5814221377949 76.24374772054466 72.976322573686 0 0 1
966 2 1 0.132277 73.19595289778334 77.20042879577402 74.7672487752694 0 0 1
967 2 6 0.145094 73.2871559240279 76.77215308906983 72.33160935886737 0 0 1
964 2 3 -0.0565093 73.17263077767372 76.16848208837163 74.39582318593664 0 0 1
960 2 6 0.162203 71.48718341070436 75.00579397744808 74.84645107794418 0 0 1
958 2 4 -0.0774159 72.42499195183811 75.24657546479128 75.35439509108556 0 0 1
963 2 9 0.129385 74.21579811687343 75.9063258473513 74.27126360346415 0 0 1
974 2 6 0.161706 70.53558567912194 75.71086279941774 71.41846997199403 0 0 1
972 2 4 -0.0685202 70.70543247534562 76.78526391569228 71.49571000510257 0 0 1
968 2 11 -0.410932 72.43110884144225 74.93130836102486 72.45256274913146 0 0 1
5111 8 8 0.153597 71.52175919880469 79.12461680088701 70.64040290966935 0 0 1
4729 7 6 0.144765 71.81929917126602 79.51234200738833 74.40332403437858 0 0 0
3680 6 9 0.134974 74.91056449171909 74.68584326818595 71.33361415489105 0 1 0
969 2 8 0.14338 71.99085638940079 75.12996479135637 71.66623756971144 0 0 1
961 2 11 -0.403898 73.16429205253698 74.03957358924116 75.36405281902672 0 0 1
949 2 9 0.134048 70.04626575128911 74.04615048725631 76.17465393747956 0 0 1
975 2 11 -0.387985 71.69358987875184 77.0948233876239 70.60924291841708 0 0 1
4725 7 9 0.129821 69.45085020037209 79.97473343022374 75.57222185570232 0 0 0
5110 8 11 -0.397625 71.47946792525805 79.99896881402553 71.02893912156219 0 0 1
4726 7 3 -0.048951 70.46444199118285 79.91442706101422 76.1300386774348 0 0 0
4730 7 11 -0.392909 72.74226601149633 79.83912967085983 76.21130901871598 0 0 0
976 2 8 0.161247 72.05819347749892 76.28067514344603 70.4493122088357 0 0 1
3681 6 3 -0.0451754 75.55514910730311 73.99665460004628 71.9305359916758 0 1 0
3679 6 8 0.155429 77.0826653450177 76.62600507297444 72.99145382321227 0 1 0
3678 6 11 -0.392076 76.59316224867581 76.13386767472973 72.29374076449588 0 1 0
3676 6 1 0.133219 76.08788313881485 74.83993638384351 74.5525117318619 0 1 0
3675 6 4 -0.0697797 76.76893756920026 74.7717992848295 72.52316099779742 0 1 0
3673 6 9 0.134067 77.7243876229134 75.14746847783293 74.46371243652834 0 1 0
3674 6 3 -0.0417471 76.94104077834365 74.53361232413303 73.99572376805841 0 1 0
5515 8 6 0.158563 77.79782307665107 78.19275531468827 75.29508217211857 0 0 0
5516 8 11 -0.406164 76.20444032560458 76.98845320940167 75.94229330439317 0 0 0
3677 6 6 0.160043 77.68742880863287 74.41883241440487 71.9419588081937 0 1 0
6048 12 10 0 79.50985148723376 76.0726513255602 72.00862975618884 0 1 0
6047 12 10 0 80.29051271046663 77.0320626404546 72.02142354112775 0 1 0
5521 8 1 0.13644 75.48408047057166 79.13590923806275 75.55588556174844 0 0 0
5513 8 4 -0.0757741 77.12507788259391 77.99623592347919 76.21257492712917 0 0 0
5519 8 3 -0.0441419 76.27259265437272 79.2729553586711 76.37302446647453 0 0 0
1522 3 6 0.152202 85.47785723483679 78.32132978515034 74.68365248630533 0 0 0
820 2 6 0.152203 86.88608051376899 76.61060447250036 72.05802908956171 0 0 1
1520 3 4 -0.0740518 86.26022096187764 79.14213005923463 74.43684344114986 0 0 0
1523 3 11 -0.391528 86.66070305455167 79.0889817649133 72.99663605457978 0 0 0
1524 3 8 0.159051 87.32137058498516 78.41633771852402 72.99851960446264 0 0 0
1519 3 3 -0.0551556 87.51636736931852 78.96624211218126 75.34658509489519 0 0 0
823 2 9 0.13501 87.21888236210279 74.24007555068933 72.17864152684815 0 0 1
802 2 9 0.139543 82.92382083274335 78.26061592303427 70.7134035498821 0 0 1
812 2 1 0.130158 84.54024952433426 76.28540502865494 70.87614207150521 0 0 1
1516 3 11 -0.396369 87.30044931274911 76.60903057727738 75.32929163259043 0 0 0
805 2 1 0.140088 84.62462111246694 78.82413880971171 70.31427340498442 0 0 1
1529 3 6 0.154869 83.74516910228544 79.40365951082092 74.2133394594135 0 0 0
818 2 4 -0.0740495 87.73269277039114 76.14708268277668 71.54095393799408 0 0 1
1531 3 8 0.15197 85.13888923515478 79.7721684140971 72.32898389648017 0 0 0
817 2 3 -0.0551553 87.46523084347953 75.74541841557038 70.09564162100534 0 0 1
815 2 8 0.152945 86.45615409574064 78.14723358739312 70.89754511281085 0 0 1
1517 3 8 0.152939 87.82782683925046 75.79222759880774 75.36952624017887 0 0 0
1515 3 6 0.157913 88.79403483244715 77.67357225244308 74.28992987996767 0 0 0
1513 3 4 -0.08012320000000001 88.241371911701 77.66665851368369 75.24824189674342 0 0 0
1518 3 9 0.128133 88.26401255955658 79.82494801582868 75.15143212069499 0 0 0
824 2 3 -0.0485669 88.04708215171073 74.91666802191823 72.38263098435974 0 0 1
826 2 1 0.131985 88.09641291901711 75.23900857304015 73.3530097064146 0 0 1
822 2 8 0.159068 88.52790952913965 77.69477175783008 72.26850081244206 0 0 1
1502 3 11 -0.392874 91.7936352394025 76.87527095923309 74.64685067765463 0 0 0
1499 3 4 -0.0765401 92.36730111286585 76.10794053445258 75.76291518065693 0 0 0
657 1 6 0.164298 92.40848643504344 79.52873875632393 75.32913676603673 0 0 0
1509 3 11 -0.393409 89.58437942440804 75.34556553936685 75.40103144460568 0 0 0
1503 3 8 0.157012 92.42271951617266 76.75199506708199 73.93557711660311 0 0 0
1494 3 6 0.152906 92.3509239333604 74.86803813272678 73.23509435752872 0 0 0
1492 3 4 -0.0815511 93.16336124136134 74.58326439366769 73.92453020077325 0 0 0
1498 3 3 -0.056234 92.69372258898537 74.63996748784037 75.35857225334935 0 0 0
1511 3 9 0.13507 90.09914683376323 78.24285168972673 76.03054967833722 0 0 0
827 2 6 0.154866 90.21266176646746 74.88595142222837 72.0909223334356 0 0 1
821 2 11 -0.391528 88.85378032818986 76.95882172487613 71.73676870450653 0 0 1
1465 3 1 0.136771 92.24993095160227 77.32201002778892 71.05565137341179 0 0 0
1458 3 1 0.131238 90.51985647080893 79.39169351551895 71.6291166207051 0 0 0
1510 3 8 0.154875 90.13696272488423 75.77923319372987 74.78889646279639 0 0 0
1501 3 6 0.158125 93.32754872371606 76.61032280584499 76.11219090340502 0 0 0
1456 3 3 -0.0523653 90.47241964939609 79.37966641784513 70.50335271342662 0 0 0
1500 3 1 0.13545 91.91325674515903 73.96341976600236 75.40323784569829 0 0 0
660 1 9 0.140664 93.22891121880758 80.1280639526739 73.00836538976519 0 0 0
1460 3 11 -0.402737 92.80040692951111 79.71286796713798 70.42161668064175 0 0 0
825 2 4 -0.0769257 89.37280447019671 74.18907290791564 71.99383559878002 0 0 1
1497 3 9 0.130128 93.40369246428773 74.22955809381827 76.06538621603897 0 0 0
1472 3 1 0.135613 93.26755258923009 75.46004988212766 70.52497538900762 0 0 0
4890 7 6 0.151756 62.43900629876043 75.4959065479477 70.72049410020553 0 0 0
1495 3 11 -0.410343 94.29275318410374 75.49391568471101 73.801653266888 0 0 0
1496 3 8 0.136656 94.60684874420258 75.54894352573284 74.70533015381476 0 0 0
3522 6 1 0.136743 100.30055521505595 79.82234852498603 72.4118128497336 -1 0 0
1483 3 9 0.135919 95.28928682169445 74.442684149454 71.89890485167616 0 0 0
4883 7 6 0.149271 100.12415950259857 75.41714987219541 74.13263318476636 -1 0 0
4881 7 4 -0.0801139 99.26117513248452 75.15698713618647 73.53856646722271 -1 0 0
4886 7 9 0.136928 99.11287548436931 76.87332673502905 72.41565875043709 -1 0 0
4880 7 3 -0.0543265 98.0727328357354 75.57444951081114 74.29364037568304 -1 0 0
4887 7 3 -0.05383 99.42626937241448 75.79383999417168 72.22655248805546 -1 0 0
4889 7 1 0.135909 98.67942487947268 75.49179234765003 71.45140890991253 -1 0 0
4882 7 1 0.132365 97.18391209561611 75.43996929550421 73.64103726114604 -1 0 0
4879 7 9 0.134322 98.11415856274004 76.64349448576755 74.50697996705233 -1 0 0
4874 7 4 -0.075561 97.83884882561756 74.84054217804382 75.64414716379045 -1 0 0
4876 7 6 0.15088 97.12342432309408 75.34795368195344 76.39383019305527 -1 0 0
3529 6 1 0.136731 99.59167704740912 79.81088635797985 74.54462696874863 -1 0 0
4875 7 1 0.139453 99.93903161598723 74.24373670399675 76.0054310909407 -1 0 0
3530 6 6 0.160874 97.05800333038552 79.81499725029938 75.20918404814681 -1 0 0
3516 6 6 0.168663 98.87857497202032 79.3643259542909 70.49525676355303 -1 0 0
4909 7 4 -0.0548367 67.33258254153753 80.09848879022489 73.1063962176296 0 0 0
4911 7 6 0.162446 67.35557710465082 79.83879283876176 72.06054635473579 0 0 0
4907 7 9 0.149088 65.82224466484804 80.58159287443696 74.66925530489512 0 0 0
4908 7 3 -0.0436097 65.9485132561961 80.56732417097211 73.56416712638527 0 0 0
4910 7 1 0.146294 65.88352929852131 81.6398663912527 73.33950707917084 0 0 0
5131 8 11 -0.393614 65.36152923955278 84.6944570659497 73.13976438616011 0 0 1
5132 8 8 0.156085 65.16195227941 84.3484878508878 74.03042092854389 0 0 1
5123 8 6 0.161541 67.212954530104 83.11671461446973 71.81810576689425 0 0 1
4952 8 3 -0.0467711 62.749463560635455 84.54429494675689 75.67580003326393 0 0 1
4948 8 6 0.151852 63.105596152768605 85.26493277708393 73.79060766236013 0 0 1
4954 8 1 0.133356 63.085883900872346 85.57965635249754 75.85374276013202 0 0 1
5126 8 9 0.133711 67.24592356392074 85.55548688825212 71.16226074172846 0 0 1
5128 8 4 -0.076406 66.50153395884507 85.52301958628149 73.26872488190558 0 0 1
5130 8 6 0.160247 66.84192179276448 85.21183502072094 74.29119693717153 0 0 1
5127 8 3 -0.0506442 67.55486765701947 85.24771516963034 72.17522717790939 0 0 1
4956 8 11 -0.398435 64.78764216830014 83.43050056540588 75.29464716004102 0 0 1
4957 8 8 0.148868 64.43035996750174 83.46842220468265 74.38737423870703 0 0 1
4949 8 11 -0.407252 62.72492947029088 83.24259892825116 73.68558968873988 0 0 1
4946 8 4 -0.0841731 100.62942854631021 84.53591317613608 74.20608121366683 -1 0 1
4953 8 4 -0.07385120000000001 63.72861611407333 83.46194047635895 76.22016033244923 0 0 1
5121 8 4 -0.0746975 68.01382963794475 83.81252260146725 72.1766962296978 0 0 1
5125 8 8 0.139808 67.80892630491559 84.01852054792613 74.19940613343321 0 0 1
4955 8 6 0.163518 63.37353439031483 82.3863033430616 76.25871125517772 0 0 1
4913 7 7 0.162926 67.99446065748313 81.01692503869151 73.19781529385754 0 0 0
5124 8 11 -0.406884 68.31530099651596 83.52903095953235 73.52169033131158 0 0 1
5129 8 1 0.127573 68.40467694297872 85.77140012783161 72.35513071112878 0 0 1
4780 7 8 0.140507 66.52480902745698 85.58004839416469 76.47888726696004 0 0 0
5117 8 11 -0.397395 68.53803116838134 81.45152522074083 70.53408005533532 0 0 1
4950 8 8 0.140908 63.126947006262235 83.64967565874332 72.86739092105694 0 0 1
5137 8 6 0.163393 64.39430420833324 86.53786699196061 72.03790114564814 0 0 1
4727 7 4 -0.0723138 71.72643469248719 80.17491867826098 75.27953949151758 0 0 0
4738 7 8 0.15552 74.88947120513 82.10079485158656 73.80182854271175 0 0 0
4735 7 1 0.136505 70.91957463501346 81.91132543239182 74.36390413229232 0 0 0
4736 7 6 0.155375 72.906178227558 81.45093923615988 72.94133664992928 0 0 0
4733 7 3 -0.0511372 71.81758862170228 81.60894654248764 74.81258168464386 0 0 0
4734 7 4 -0.0813642 73.04803948178828 81.99959073664967 73.90468361208906 0 0 0
5116 8 6 0.158704 69.93296968915692 81.86958421111649 72.05394279864008 0 0 1
4739 7 9 0.133043 71.98535003662882 83.64363814312898 73.13042485179528 0 0 0
4740 7 3 -0.0492929 73.00731512729175 83.48272453825832 73.5412546637619 0 0 0
4741 7 4 -0.0826814 73.45535056886038 84.40751659082473 74.6238565307312 0 0 0
4743 7 6 0.152824 73.1437013313512 84.1174484223877 75.6062201995653 0 0 0
4742 7 1 0.138914 73.74387851884596 83.46893827796987 72.69691451270978 0 0 0
4732 7 9 0.135071 71.81140814860429 82.19025128888858 75.80097109157883 0 0 0
4747 7 3 -0.0442507 72.8113175312497 85.76876380708232 74.48468681393297 0 0 0
4746 7 9 0.138999 71.71568007609945 85.70242692381655 74.69073953416911 0 0 0
5114 8 4 -0.08068 69.63249970067797 82.22187834753392 71.00321114631969 0 0 1
5120 8 3 -0.0498184 69.22269862937944 83.67335928459757 71.25794949005488 0 0 1
5122 8 1 0.131064 70.09308569099896 84.28830737318276 71.54159039209128 0 0 1
4737 7 11 -0.40405 74.32105536679806 81.6430158334023 74.42037945972864 0 0 0
5040 8 11 -0.396698 72.6249157028872 85.43040275107279 70.89891649101183 0 0 1
5041 8 8 0.151977 73.4912827532069 84.94730634820858 70.87584689635969 0 0 1
4749 7 1 0.137623 72.86379602616505 86.09140626356884 73.46260656318692 0 0 0
4744 7 11 -0.393357 74.89961185127018 84.53519958912048 74.64800465064937 0 0 0
5115 8 1 0.133878 71.64617788580514 82.70032029622284 70.71484873318985 0 0 1
5119 8 9 0.13531 68.85518399657032 83.94540115514039 70.25597981446117 0 0 1
5113 8 3 -0.0461975 70.88295947695303 82.21204711416458 70.13163997840641 0 0 1
4731 7 8 0.14868 73.55324144549544 80.38651075050986 76.00588795930983 0 0 0
4745 7 8 0.153764 75.16699784547153 83.69604335987327 74.97876060934685 0 0 0
5522 8 6 0.165729 76.88951801111514 80.82309848066856 75.05243821045526 0 0 0
5052 8 1 0.132309 75.83272754525842 85.28698609954853 70.94386192300294 0 0 1
1542 3 1 0.132301 80.14554620077277 82.65327712475454 73.63029331090652 0 0 0
1547 3 3 -0.0470816 80.72811139223676 85.52684766677797 74.53609364692197 0 0 0
1550 3 6 0.16124 78.85230981519372 84.56524779216585 74.59030928212306 0 0 0
1548 3 4 -0.07128859999999999 79.20932078188596 85.53360407986918 74.3026842085421 0 0 0
1551 3 11 -0.388532 78.93351914120636 85.73324457185993 72.92770985607258 0 0 0
5053 8 6 0.155989 78.09769048480928 85.74785517386547 70.44994426158712 0 0 1
1549 3 1 0.133345 81.04965512723228 85.40153403176062 75.65174269542793 0 0 0
1539 3 9 0.134799 81.21506520491377 82.85047591211489 75.08228275232928 0 0 0
1540 3 3 -0.0418634 81.18288094015693 82.92743292862845 73.98766328838165 0 0 0
1546 3 9 0.132279 81.17680746669198 86.47331617984146 74.38831673726672 0 0 0
1556 3 1 0.134916 77.32419262641274 86.20242439163916 75.24374599405174 0 0 0
1554 3 3 -0.0443248 78.38077492080969 86.55844972833458 75.1388091237359 0 0 0
1553 3 9 0.132963 78.75718167952894 86.47491602512208 76.15659659883731 0 0 0
1543 3 6 0.15598 81.08065966764866 84.60641204939077 72.549256933153 0 0 0
1541 3 4 -0.0767853 81.40569552579703 84.38972969275441 73.60230930258156 0 0 0
1536 3 6 0.149471 81.53876867196675 81.0529724103003 73.06228815904726 0 0 0
5520 8 4 -0.06859179999999999 77.03412204586681 80.56736476345715 76.08945716085128 0 0 0
5523 8 11 -0.406196 78.45673767866683 80.37038349609725 76.32462224345392 0 0 0
1538 3 8 0.142372 83.37023395543477 81.71164482941114 71.8205928751372 0 0 0
1534 3 4 -0.0815683 82.19214458184616 81.90386498881932 73.35782200535597 0 0 0
1537 3 11 -0.405608 82.78337997988484 82.43424615308346 72.15919154826113 0 0 0
1530 3 11 -0.396703 84.52475378194927 80.45599878390557 72.50304602117845 0 0 0
1526 3 3 -0.0485693 85.492080504686 80.47607722781314 74.76426737590731 0 0 0
1527 3 4 -0.0769262 84.20134609989717 80.36037007683251 73.90763088505396 0 0 0
1528 3 1 0.131983 85.27101027676885 80.55520763246923 75.7944310290172 0 0 0
1525 3 9 0.135007 86.09628301273477 81.43841873740601 74.51077340700658 0 0 0
1535 3 1 0.132352 82.8302378024902 81.25421616397502 75.29706418795597 0 0 0
1545 3 8 0.155583 83.18655606366309 83.87630972597358 73.08848143546312 0 0 0
1533 3 3 -0.0470712 83.3022635235678 81.51901957775685 74.34252843282002 0 0 0
1532 3 9 0.139318 83.9002836921094 82.42256635857217 74.65236709893888 0 0 0
1544 3 11 -0.391563 82.82136127725263 84.56815541307053 73.68600561360397 0 0 0
1435 3 3 -0.0504151 85.0802478006444 84.62109428161295 71.14445696746901 0 0 0
1436 3 4 -0.0841711 86.56650339590944 84.32885047134901 70.98886307560461 0 0 0
1437 3 1 0.135083 84.79965825104283 84.48649000907636 72.24274140323296 0 0 0
1442 3 3 -0.0467701 86.81304437979722 82.83221491632152 71.10922507459466 0 0 0
1444 3 1 0.133354 86.72589309615951 82.44412208376444 72.14153763157141 0 0 0
574 1 11 -0.394225 85.7282347517799 85.03611121739732 75.04893541859103 0 0 0
1434 3 9 0.132207 84.41428023206154 83.99854804478632 70.52718678261706 0 0 0
1441 3 9 0.132019 86.20601753924099 82.25249751761922 70.38117134878327 0 0 0
1427 3 9 0.135252 82.52703709955362 85.63184778555654 70.8762577310304 0 0 0
575 1 8 0.14905 84.80158206440942 85.1143892201707 75.36643321445769 0 0 0
571 1 4 -0.0774388 86.48939585140306 84.34028182380949 76.09609588070684 0 0 0
573 1 6 0.160504 86.38925719560397 83.284664446831 75.7621261519371 0 0 0
1429 3 4 -0.0815094 84.67914010124203 85.96560123080678 70.5804848791783 0 0 0
1438 3 6 0.151853 87.14139864723458 84.89657448824502 71.68820418067433 0 0 0
577 1 3 -0.0463548 87.93527155554202 84.76879529766346 76.11696571315157 0 0 0
580 1 6 0.154421 88.01435983014666 85.5790179105265 74.10442258300128 0 0 0
1428 3 3 -0.0505674 83.31828715353608 86.36652908614022 71.02972066520222 0 0 0
1433 3 8 0.156787 86.45710855585101 86.62741410873876 71.1800257797262 0 0 0
579 1 1 0.136889 87.97736093309264 85.78748157616346 76.55543492989486 0 0 0
659 1 8 0.155346 90.27730547467243 80.20473814065247 74.59856990041514 0 0 0
582 1 8 0.152251 88.64563242944057 83.34733944418917 73.31357750106108 0 0 0
1448 3 9 0.137465 87.99258084669971 80.35583866296643 70.59730611463677 0 0 0
655 1 4 -0.0685619 92.23569387013994 80.477973928972 74.85069108400911 0 0 0
661 1 3 -0.0501357 93.48402058816859 80.66964420343217 73.92336029962779 0 0 0
1451 3 1 0.135456 88.81515422724755 80.8716042602934 71.9721716454625 0 0 0
1449 3 3 -0.0442857 88.73755648390784 81.12306984933772 70.875427438067 0 0 0
658 1 11 -0.393583 91.04626316284768 80.5416685990272 74.0573310630334 0 0 0
581 1 11 -0.392852 88.17759715871145 83.44331373338338 74.08379158918942 0 0 0
578 1 4 -0.07053769999999999 88.42149369796245 84.7564415565236 74.6244882055534 0 0 0
667 1 9 0.134021 92.06564191899423 82.55065718962693 72.28843306654869 0 0 0
668 1 3 -0.0547835 93.1053861950599 82.41493560254115 72.08214745867662 0 0 0
584 1 3 -0.0534396 89.93624646234962 85.06954607299349 74.48629192076743 0 0 0
586 1 1 0.12984 90.54394409973868 84.3483782809477 74.96353667761433 0 0 0
670 1 1 0.132114 93.3102896053022 81.72373047644481 71.19056245310702 0 0 0
669 1 4 -0.08053449999999999 93.50716735821615 83.73614393150582 71.56074481478738 0 0 0
674 1 9 0.136607 91.60664574191627 84.56218773183232 70.99997973632169 0 0 0
675 1 3 -0.0540661 92.60417197341144 84.34389356889902 70.56285161891118 0 0 0
583 1 9 0.12863 90.26710967068583 85.16916693615028 73.44713503624232 0 0 0
1446 3 11 -0.398436 89.16269661262353 83.431525050909 71.37621328685987 0 0 0
671 1 6 0.148833 93.58384756685895 84.45083377521546 72.4916157687925 0 0 0
656 1 1 0.132364 92.00453126124687 82.49120119345702 75.22485364211043 0 0 0
585 1 4 -0.0767468 90.35158423311552 86.38358895934458 75.13318354244073 0 0 0
654 1 3 -0.0412383 92.15420396916375 81.61855421320705 75.81479518559553 0 0 0
662 1 4 -0.0757468 93.91863254184634 81.99231287489076 73.28580753265304 0 0 0
1443 3 4 -0.0738535 88.2608627044206 82.55658732806724 70.68542852873225 0 0 0
1447 3 8 0.148865 89.20764846871946 84.21843614557834 70.81707414154917 0 0 0
650 1 6 0.163191 90.22302436328889 81.84983221629801 76.41413890614834 0 0 0
592 1 4 -0.07959629999999999 92.67816575752686 86.30493568020835 76.11063020208532 0 0 0
596 1 8 0.134988 92.41359536490708 84.5125946136164 75.4280588748364 0 0 0
1452 3 6 0.164697 90.8436249696895 81.4711959866658 70.36270953145177 0 0 0
665 1 11 -0.392064 94.11911669017002 82.9428373680842 74.33840094331948 0 0 0
594 1 6 0.160447 93.71518568888955 86.29684056794349 75.6916857561982 0 0 0
680 1 8 0.136914 93.90098973427119 86.06770554668412 71.53342300848955 0 0 0
595 1 11 -0.400747 92.32293297539137 84.8947336252199 76.31317518172452 0 0 0
653 1 9 0.137351 93.14827366704024 81.71993004934906 76.3406136923132 0 0 0
3524 6 11 -0.39927 97.44487089818668 79.99841062199465 72.63464674273989 -1 0 0
663 1 1 0.139406 94.3222995840789 79.99598174117848 74.34426143234018 0 0 0
3525 6 8 0.13947 96.65132387297564 80.36475367526384 72.99050674542633 -1 0 0
4943 8 8 0.156779 100.11462396573421 85.79020428676931 71.42188306202877 -1 0 1
4951 8 9 0.132021 99.96930642792677 84.50153741632957 76.26128952995815 -1 0 1
666 1 8 0.155711 94.7870888667226 82.55677256510336 74.9214145183481 0 0 0
3519 6 9 0.139817 100.48355864384455 81.40056867210119 72.02961060887029 -1 0 0
3527 6 3 -0.0489849 98.95017092120108 80.68634685425175 74.4180492670937 -1 0 0
3521 6 4 -0.07128379999999999 98.55600648146446 80.88641631251186 72.92088324163463 -1 0 0
3520 6 3 -0.0313784 99.71755772193066 80.62695288435435 72.06562305621188 -1 0 0
3528 6 4 -0.07079539999999999 97.72174915164791 80.69160493804537 75.2939473054497 -1 0 0
3526 6 9 0.132768 99.65301510233178 81.53267642336141 74.69810457454281 -1 0 0
672 1 11 -0.406254 94.75571546493325 83.63353656060505 70.92277437123751 0 0 0
664 1 6 0.150755 94.93049449480458 81.8476659904281 72.91978593581348 0 0 0
3531 6 11 -0.401853 96.91305568093267 81.84776367238177 74.97594954294284 -1 0 0
3523 6 6 0.160209 98.14853844458054 81.9191798568942 72.78615334267589 -1 0 0
4944 8 9 0.132213 98.40111670457262 84.24127437197433 74.57619576773118 -1 0 1
4940 8 1 0.131846 96.90474872842445 83.91158327695537 72.4503342433788 -1 0 1
4941 8 6 0.158467 99.26088151603378 84.04494545993163 72.33769187861222 -1 0 1
4945 8 3 -0.050417 99.18592187901801 84.95510672955439 74.10738561340621 -1 0 1
4939 8 4 -0.0815102 98.80542184412775 85.00188612490994 72.65695120127316 -1 0 1
4938 8 3 -0.0505673 97.28196483060847 84.96907766067059 72.33764243535484 -1 0 1
4947 8 1 0.135088 99.09912567856423 85.9388836622941 74.6246988146403 -1 0 1
4937 8 9 0.135251 97.16564517351993 85.0230349759747 71.2087383958501 -1 0 1
4934 8 6 0.160869 95.32289657975073 85.59461340789336 72.49173791037795 -1 0 1
3513 6 4 -0.0482313 99.2368216988898 80.40025817681158 70.62899014306223 -1 0 0
3532 6 8 0.147737 96.3988970436813 81.96424836475772 75.80621100963734 -1 0 0
673 1 8 0.136101 94.64154388475828 83.5233194722571 108.18921129831143 0 0 -1
3517 6 11 -0.385921 98.14979107401172 81.27615705026285 70.37081814875758 -1 0 0
4932 8 4 -0.0707957 96.245019264706 85.85622372996401 73.05872823808143 -1 0 1
4935 8 11 -0.401854 96.23297382711681 85.58849511898553 74.49204072792668 -1 0 1
4936 8 8 0.147733 95.6825318980666 84.82322028895727 74.66436919164738 -1 0 1
4942 8 11 -0.393708 99.33959534980761 86.13191742816088 71.95718924816862 -1 0 1
3518 6 8 0.142621 97.52228577619927 80.99352522671148 70.99965934528203 -1 0 0
5136 8 1 0.12889 65.45345125874658 87.08003390305817 74.29310581818558 0 0 1
5134 8 3 -0.0506234 66.05644802819488 86.93023787808926 73.40004222260177 0 0 1
5135 8 4 -0.0709428 65.11134615785647 87.3063408324698 72.25225508026261 0 0 1
5133 8 9 0.13026 66.84023770685813 87.63071187025477 73.54260371456269 0 0 1
5140 8 9 0.139821 63.548835513112515 88.32204983095042 73.34039455290021 0 0 1
5142 8 4 -0.0686809 64.6184391486612 89.92323223719816 72.36896549670328 0 0 1
5145 8 11 -0.39294 63.676202447425375 90.70357825111931 73.0476211534708 0 0 1
5141 8 3 -0.0423537 64.09062502745614 88.43582036594076 72.40685659609466 0 0 1
5144 8 6 0.155914 65.62368461443145 89.86454791906193 72.87732035746387 0 0 1
5146 8 8 0.14897 64.28758632683373 91.27295993774113 73.45687694885581 0 0 1
5143 8 1 0.140211 63.40263798258789 88.25222826180843 71.59871159808975 0 0 1
5005 8 11 -0.410343 66.75564243708122 92.12271747019507 74.80694836233315 0 0 1
4996 8 1 0.13528 64.32243378122645 91.87522756025773 75.41863866582108 0 0 1
5006 8 8 0.136654 66.32711081734882 91.40648366931217 75.31364532560252 0 0 1
5148 8 3 -0.038628 64.80734149472347 90.38842549631906 70.92237586478444 0 0 1
5149 8 4 -0.0717719 65.31908693582785 91.82946953169876 70.84227502948508 0 0 1
5138 8 11 -0.388631 65.97622712320369 87.48083295238598 71.14771621386531 0 0 1
5152 8 11 -0.389221 66.36216733911554 91.86960219555448 71.77078043870151 0 0 1
4991 8 11 -0.408022 64.36720198041789 89.29391454909235 75.87740693564402 0 0 1
4992 8 8 0.1341 64.08741239604149 89.11003069766163 74.96601641106693 0 0 1
4774 7 9 0.142817 68.12983286219058 88.4289434907762 75.96396636063307 0 0 0
5024 8 1 0.130155 68.7600452637584 91.00944223900437 71.90198268069362 0 0 1
5153 8 8 0.145734 66.16202380307085 92.53246308220909 72.47795563823036 0 0 1
5139 8 8 0.153638 66.05345602192314 86.63417173542997 70.68953600153334 0 0 1
5151 8 6 0.153648 64.52246304807986 92.52564209977886 71.23431895222717 0 0 1
5160 8 8 0.14302 67.7333221536249 92.39627610620391 70.58086722557339 0 0 1
4990 8 6 0.161269 62.53478442588115 90.47630386390361 75.69812651562849 0 0 1
5147 8 9 0.139053 63.96553059283248 90.12541415639868 70.20140724309154 0 0 1
5150 8 1 0.143446 65.48825231626029 89.71034509915336 70.44032571643831 0 0 1
5032 8 6 0.152203 70.96753528355529 87.05068470043302 71.61339066994465 0 0 1
5027 8 8 0.152935 68.89435931335517 89.35607522819959 73.3309648449709 0 0 1
4748 7 4 -0.07242899999999999 73.52378907190149 86.85967549001111 75.24051028539922 0 0 0
4750 7 6 0.159682 74.56893704570108 86.93303605774302 74.8550837139925 0 0 0
5018 8 6 0.154372 69.45359135795402 91.24505662031622 74.22511703685502 0 0 1
4754 7 3 -0.0512813 72.78134825636299 88.15159973537124 75.1736197775193 0 0 0
5034 8 8 0.159059 73.20325419884485 87.35291544710783 72.02291379973434 0 0 1
5022 8 3 -0.0464558 69.82721230067611 91.18022331528952 72.15474742096524 0 0 1
5026 8 11 -0.396381 69.78531774173395 88.98444641495176 73.23354176737774 0 0 1
5023 8 4 -0.0801264 70.50006041203712 89.82474218103093 72.31404211288026 0 0 1
5025 8 6 0.157909 71.47394075495191 90.0021853302633 72.64068286564365 0 0 1
5033 8 11 -0.391528 72.766624038109 88.16213122482273 71.69753752461226 0 0 1
5030 8 4 -0.0740485 71.5092210809089 87.87498677699129 71.07246912222021 0 0 1