LAMMPS data file via write_data, version 23 Jun 2022, timestep = 751899

2997 atoms
18 atom types
3050 bonds
16 bond types
5803 angles
31 angle types

30.278801005776394 59.82819899422298 xlo xhi
27.36430100577639 56.913698994222976 ylo yhi
30.247803005776397 59.79720099422298 zlo zhi

Masses

1 1.00794
2 1.00794
3 12.0107
4 12.0107
5 1.00794
6 1.00794
7 1.00794
8 1.00794
9 15.9994
10 12.0107
11 12.0107
12 1.00794
13 15.9994
14 15.9994
15 12.0107
16 12.0107
17 1.00794
18 15.9994

Pair Coeffs # lj/cut

1 0.038 2.44997
2 0.038 2.44997
3 0.039 3.87541
4 0.039 3.87541
5 0.038 2.44997
6 0.038 2.44997
7 0 0
8 0.038 2.44997
9 0.228 2.85978
10 0.148 3.61705
11 0.039 3.87541
12 0.038 2.44997
13 0.228 2.85978
14 0.228 2.85978
15 0.148 3.61705
16 0.148 3.61705
17 0 0
18 0.228 2.85978

Bond Coeffs # harmonic

1 340.618 1.105
2 340.618 1.105
3 322.716 1.526
4 340.618 1.105
5 340.618 1.105
6 340.618 1.105
7 384 1.42
8 540.634 0.96
9 283.092 1.52
10 340.618 1.105
11 615.322 1.23
12 322.716 1.526
13 340.618 1.105
14 384 1.42
15 540.634 0.96
16 384 1.42

Angle Coeffs # harmonic

1 39.5 106.4
2 44.4 110
3 39.5 106.4
4 44.4 110
5 39.5 106.4
6 46.6 110.5
7 44.4 110
8 44.4 110
9 70 109.5
10 46.6 110.5
11 44.4 110
12 58.5 106
13 39.5 106.4
14 57 109.5
15 57 109.5
16 46.6 110.5
17 45 109.5
18 50 120
19 68 120
20 46.6 110.5
21 44.4 110
22 55 120
23 39.5 106.4
24 70 109.5
25 57 109.5
26 70 109.5
27 57 109.5
28 80 109.5
29 70 106
30 80 109.5
31 58.5 106

Atoms # full

432 1 1 0 35.0785676021415 32.14275950676944 34.47428909928401 0 0 0
3018 14 12 0 32.3778914216362 30.491693183350502 31.84514265606444 -8 -2 2
425 1 1 0 36.933071713959066 30.67251470799961 35.60469911116461 0 0 0
2197 4 9 0 32.62391989820417 29.432276794486388 36.536277967001055 0 1 0
988 2 5 0 34.3159389312254 29.849422500674237 31.400296644117805 0 0 1
994 2 1 0 34.875513749950365 32.107239026842436 31.858389833701235 0 0 1
430 1 3 0 34.4452012589969 32.001561043383724 35.37209654671862 0 0 0
429 1 8 0 33.871061617542125 31.071545702856913 35.26158562538129 0 0 0
431 1 4 0 33.64766751473196 33.28761212874525 35.49122937084336 0 0 0
434 1 9 0 32.864421953680626 33.48819422697952 34.320459347977994 0 0 0
1955 3 1 0 37.21939082096406 32.70888673220922 33.99160789956856 0 0 0
2198 4 7 0 32.369148496461406 29.276955507095572 35.62634668374328 0 1 0
2203 4 5 0 33.61086757518758 28.303998471115335 34.48600111760647 0 1 0
423 1 3 0 36.31044700085473 30.655107767475034 36.54109304492596 0 0 0
424 1 4 0 35.33557101079814 31.823936918208574 36.62821005236253 0 0 0
2194 4 4 0 32.64745386380274 28.13221163605612 37.12917923640245 0 1 0
422 1 8 0 35.77751523994034 29.749858457916893 36.506763778236476 0 0 0
992 2 3 0 34.646762818166714 31.944041155160267 30.800085434473 0 0 1
991 2 8 0 35.56649005546366 32.25662058869517 59.734452241978545 0 0 0
3012 14 16 0 32.17237598171553 30.87942334414049 30.777333618249692 -8 -2 2
998 2 8 0 34.572133155257426 34.45416669947042 31.73782916039827 0 0 1
999 2 3 0 33.6705361866834 34.278659308807036 31.029658377764527 0 0 1
982 2 9 0 36.792281609324924 28.654080215637872 30.814187826726812 0 0 1
1773 3 1 0 30.96512296856181 31.161930940394605 36.67962132592447 1 0 0
433 1 5 0 33.08305802123403 33.28714721406018 36.42495831173006 0 0 0
2192 4 8 0 30.60747807161896 28.148498567085184 37.65354750731584 0 1 0
415 1 8 0 35.87581386300785 28.945124072859556 38.428605308587095 0 0 0
1001 2 1 0 32.77731570621182 34.64607763531085 31.713427302940207 0 0 1
1956 3 5 0 37.22237841147464 33.547029073962406 31.714930912236113 0 0 0
1770 3 8 0 30.525079575288792 32.888432398023916 36.2104154830295 1 0 0
1769 3 7 0 30.723143404530784 31.594801225250702 34.312336574155644 1 0 0
219 1 8 0 30.621992884166737 34.22879435038986 31.146563270562645 1 0 0
3010 14 12 0 30.316400878360795 29.315039545952867 32.09238564822604 -8 -2 2
1763 3 8 0 59.72083942763688 29.415562121778702 35.05939724722678 0 0 0
435 1 7 0 31.92623823472809 33.58144970422878 34.49243428271678 0 0 0
1962 3 1 0 36.55660892854179 35.05817458925967 33.38572067600381 0 0 0
2212 4 7 0 33.34736042008316 28.042961015977525 31.31295710637134 0 1 0
2211 4 9 0 32.85124750531146 56.81705615995893 31.57020860291699 0 0 0
2201 4 4 0 33.41425174627106 56.79092788158127 34.80186311128961 0 0 0
2204 4 9 0 34.653025367447164 56.24837659378616 35.24420434864268 0 0 0
2205 4 7 0 34.43111548158257 55.816322464476784 36.070183585552414 0 0 0
2210 4 5 0 34.563495307688974 56.73825343226913 32.53305318898866 0 0 0
426 1 5 0 36.00110765498657 32.67965564171038 36.72939956695409 0 0 0
417 1 4 0 37.28530141993171 30.470589714001335 37.730856968574614 0 0 0
1951 3 7 0 37.42208518551478 30.778150656430885 34.00964405890218 0 0 0
1953 3 3 0 38.217505506186214 32.8491387603673 33.534689269743815 0 0 0
1954 3 4 0 38.07635440552523 33.88456320349103 32.414513800871255 0 0 0
1957 3 9 0 39.34669433982984 34.12865514433134 31.730905476379274 0 0 0
1952 3 8 0 38.811604730229035 33.21542941521115 34.37715266718514 0 0 0
1950 3 9 0 38.06938068431933 30.50685420647024 33.31754748332027 0 0 0
1946 3 3 0 40.36254542832944 31.420967279761875 33.209432360977615 0 0 0
1947 3 4 0 38.857731589360775 31.60889493534117 32.84612808949786 0 0 0
1945 3 8 0 40.75302577121427 32.34095450604987 33.62686976680366 0 0 0
1948 3 1 0 40.306285165882024 30.687524215424425 34.0441013258342 0 0 0
1949 3 5 0 38.66969696117267 31.70556360105176 31.750920486754307 0 0 0
1940 3 4 0 41.3497965891429 30.959801521392134 32.12849228596007 0 0 0
1941 3 1 0 42.64007295681733 30.925922956592252 33.71461558199645 0 0 0
1939 3 3 0 42.749648965394904 31.218023757286897 32.62205742426864 0 0 0
1933 3 4 0 43.764139856768 30.28734973801313 31.95099272276284 0 0 0
1942 3 5 0 41.14091527417847 29.868962679122568 31.656600578869806 0 0 0
1943 3 9 0 41.30502787142745 31.821765226690633 31.015784417110154 0 0 0
643 1 5 0 43.064254887508525 32.775159689024235 35.3703802246254 0 0 0
641 1 4 0 43.01511873182058 33.084038540819684 36.445190511825686 0 0 0
663 1 1 0 40.216553034302564 28.975505604608134 35.77352325766131 0 0 0
1938 3 8 0 43.01629244979397 32.345496336788074 32.71648347487229 0 0 0
1932 3 3 0 45.04780814794207 30.991773037965096 31.522609011302503 0 0 0
1944 3 7 0 40.74066929203777 32.57696572563648 31.120778035774862 0 0 0
661 1 3 0 41.189255638494096 28.46970729482775 35.529881736564136 0 0 0
1936 3 9 0 44.04855413687913 29.238462871439676 32.87797026775379 0 0 0
660 1 8 0 41.701144834877056 29.22038720102128 34.908637664745456 0 0 0
924 2 1 0 43.9881155512114 34.23778664575285 32.880138798924065 0 0 1
931 2 1 0 42.574016256813685 34.60029844327532 31.256652390987327 0 0 1
650 1 5 0 41.57621547649647 31.020995812269554 36.19694168437397 0 0 0
644 1 9 0 44.19550710343517 33.901636428667615 36.73488123775955 0 0 0
1935 3 5 0 43.36424264489944 29.742906961041662 31.119365383109578 0 0 0
645 1 7 0 43.90416298664566 34.800513808856635 36.799116947222686 0 0 0
638 1 7 0 39.839888754633165 35.0577783794734 34.93146845375141 0 0 0
1931 3 8 0 44.68463346794662 31.679361024782104 30.81804489593277 0 0 0
637 1 9 0 40.80189293915099 34.870307409912634 34.84756850738186 0 0 0
640 1 3 0 41.67759477198517 33.79572154135994 36.85850916851046 0 0 0
667 1 8 0 40.47089035017906 27.752754427618417 32.67846497768736 0 0 0
656 1 1 0 43.73717201804905 29.452703177392305 36.6624639856942 0 0 0
655 1 4 0 41.94468235685674 28.26063480599421 36.861649908451675 0 0 0
654 1 3 0 42.797737164481305 29.45492949872998 37.23960302166108 0 0 0
648 1 4 0 42.05423124567255 30.833464691954205 37.163891526471026 0 0 0
1937 3 7 0 44.96744420277287 29.04304324050391 32.76904866210833 0 0 0
657 1 5 0 42.686682053264455 27.416747935436707 36.66509161775969 0 0 0
420 1 9 0 38.58725456671192 30.19356174721833 37.360988025474335 0 0 0
639 1 8 0 40.80123777512226 33.198276176376964 36.60568661599728 0 0 0
421 1 7 0 38.630684793190866 30.169738488214712 36.398197439039095 0 0 0
1930 3 7 0 45.790437280793846 29.2061154664439 58.84561268630628 0 0 -1
1934 3 1 0 45.37818457817201 31.55642139139183 32.34453647150846 0 0 0
1711 3 5 0 48.12025651076874 27.563312494423904 31.82877357044224 0 0 0
1695 3 4 0 47.42581649177616 27.782318297669185 34.74167680022574 0 0 0
1697 3 5 0 46.85558769299274 28.703672112784535 34.405724111641796 0 0 0
1907 3 5 0 47.84388591194066 32.62253491103348 34.6390793048134 0 0 0
1698 3 14 0 48.65222531907713 27.792389044150266 33.97388184329546 0 0 0
1921 3 5 0 48.53706937783973 29.686329699892386 31.00160914512275 0 0 0
1913 3 1 0 49.53676886196644 32.978837950613325 33.258604691710254 0 0 0
1914 3 5 0 48.23672298222655 30.639064159650395 32.84938156623293 0 0 0
1908 3 9 0 48.47101368125478 30.944070585489058 35.707337764637224 0 0 0
1905 3 4 0 48.76717465118706 32.188301769537105 35.097574804544664 0 0 0
1909 3 7 0 48.93061269757361 30.358635496421414 35.15566892733541 0 0 0
1912 3 4 0 49.24049898426704 30.99995799389526 32.80629265757659 0 0 0
1916 3 7 0 50.96777723237873 30.27567658278276 32.25848336193891 0 0 0
1911 3 3 0 49.62650122959107 32.049338588172255 33.85604669818675 0 0 0
1918 3 3 0 49.119416917219574 31.642080446990825 31.43327588507974 0 0 0
1915 3 9 0 50.233498396072775 29.933372244125152 32.769096081710536 0 0 0
2917 8 12 0 50.68493647978207 28.58321660087314 34.5316549256977 3 5 8
1920 3 1 0 48.62284261095486 32.62678637453051 31.35701934648784 0 0 0
1910 3 8 0 50.60633104288965 31.805719875479454 34.19021462575563 0 0 0
1903 3 8 0 50.47315437666319 33.020216857428125 36.1371809225014 0 0 0
1904 3 3 0 49.32072919947515 33.19271465591156 36.0562066124809 0 0 0
2919 8 11 0 51.79774357584002 28.151333337532975 36.55285336153725 3 5 8
1694 3 3 0 47.780105759285185 27.795542164537544 36.23059097461777 0 0 0
1906 3 1 0 49.09020757931643 34.217261780934834 35.78849591412172 0 0 0
2923 8 12 0 50.93188622202412 28.878390504431533 36.80009606117372 3 5 8
1696 3 1 0 48.59168945013032 28.486433246112195 36.4485080286627 0 0 0
1917 3 8 0 50.17143867672288 31.950041166092344 31.195116939117934 0 0 0
1928 3 5 0 46.690949505844365 29.473505879911265 31.705850196330953 0 0 0
2915 8 11 0 50.87251704671046 27.514094898689375 34.44023301098546 3 5 8
1926 3 4 0 46.10859252558164 30.04258779960517 30.93815223423232 0 0 0
1690 3 5 0 45.716569574987474 28.42939258412908 36.7404062174425 0 0 0
914 2 8 0 47.18349997990277 34.31957246356643 32.9654543527591 0 0 1
917 2 1 0 45.914978866124244 34.29413552885291 31.68113228157794 0 0 1
1688 3 4 0 46.5613206106082 27.931597372514325 37.22423734342706 0 0 0
1929 3 9 0 45.4475965090748 29.046274001744212 59.72834389407612 0 0 -1
906 2 7 0 49.3782572148006 34.911997917753034 32.04918302457905 0 0 1
1704 3 5 0 46.109507899383125 56.8387956906232 32.64168376894737 0 -1 0
1919 3 4 0 48.58415411801582 30.600081981511906 30.445059319128664 0 0 0
1927 3 1 0 46.808715076100995 31.95509401937709 30.356777082663886 0 0 0
1718 3 5 0 50.16652279273669 28.262006505937958 30.649047845491214 0 0 0
1925 3 3 0 47.09550546910637 30.90901773999652 59.67696846585014 0 0 -1
920 2 7 0 46.14933597922628 36.104176738504464 35.35265391459085 0 0 1
905 2 9 0 49.928406332256955 34.674278197579994 31.290680727417616 0 0 1
2918 8 12 0 51.66554021566513 27.40120201876707 33.64367790059642 3 5 8
1902 3 7 0 48.66070724012506 31.538154480897084 38.80711764809304 0 0 0
1901 3 9 0 49.3946158965619 31.799878770894946 38.24242933017448 0 0 0
1768 3 9 0 59.3377135346081 31.775499804723285 34.335390642171525 0 0 0
1771 3 3 0 59.701695816536116 31.925985939516035 36.6194172960556 0 0 0
1748 3 7 0 52.76338930874654 31.7750596628984 33.72377555991581 0 0 0
2924 8 12 0 52.552328352965844 28.713042140384594 36.06428258425214 3 5 8
1747 3 9 0 53.090140619067505 31.856172637383416 32.83658011928317 0 0 0
1755 3 7 0 54.6452301678758 27.443340099468667 34.81833330311331 0 0 0
3011 14 12 0 58.631987003662886 30.355533106777273 31.518550344484364 -9 -2 2
3006 14 11 0 59.381685021893944 29.65704677652908 31.093032392884396 -9 -2 2
1746 3 5 0 53.523671771054836 29.886602838661638 32.41379097091378 0 0 0
1749 3 8 0 53.89986678234024 30.75572864373168 34.90751301415535 0 0 0
1750 3 3 0 54.65314183718594 30.55237142496165 34.095552349431244 0 0 0
1744 3 4 0 54.02665661038457 30.81941874367969 32.7461309049636 0 0 0
1752 3 1 0 55.408530257084685 31.321944214086095 34.19797045616501 0 0 0
1751 3 4 0 55.194774874808516 29.10733712906286 34.10427793027439 0 0 0
1753 3 5 0 55.618130325562305 29.039617189564172 33.087217463435216 0 0 0
1760 3 5 0 57.34637874133306 30.14572609444143 33.634222723162445 0 0 0
1764 3 3 0 58.72410510332973 29.78065087340483 35.36807740189506 0 0 0
1765 3 4 0 58.78385980006621 31.243564708567636 35.498639955398296 0 0 0
1758 3 4 0 57.69819355764578 29.342199996397156 34.36603382383479 0 0 0
1759 3 1 0 56.171235173984144 29.82420703663635 35.82814777409535 0 0 0
1757 3 3 0 56.34442514310098 29.06166986013674 35.055155918673435 0 0 0
1767 3 5 0 57.79269114057419 31.719933683274025 35.559394601066174 0 0 0
1766 3 1 0 58.41868425959515 29.422752106768886 36.30482887602126 0 0 0
1782 3 9 0 56.00138428742221 33.360061810535825 36.476244404241164 0 0 0
1783 3 7 0 55.445873235170524 34.13540357040944 36.642901339093655 0 0 0
1743 3 3 0 55.05806751220039 31.24687369540236 31.73129208717614 0 0 0
1742 3 8 0 55.24161493440398 32.363493294704675 32.043182069784415 0 0 0
1777 3 8 0 58.09900717291842 33.88622985326479 37.12700904493369 0 0 0
1754 3 9 0 54.171695172647745 28.149001435121782 34.348894419400715 0 0 0
1745 3 1 0 56.05494578362429 30.785491245276116 31.877917463648636 0 0 0
1761 3 9 0 58.13789971296186 28.16589698407272 33.69562161263377 0 0 0
1756 3 8 0 56.221745342589465 28.14068292416364 35.62761087632239 0 0 0
1789 3 9 0 53.44805008647505 32.671601698996284 37.71425215497724 0 0 0
1762 3 7 0 59.09061959862893 28.22018497626162 33.633178707179674 0 0 0
1738 3 1 0 55.53729855472821 29.191815765158253 30.701197344556164 0 0 0
214 1 4 0 58.09366310108645 33.93248369802676 31.526002031540795 0 0 0
212 1 8 0 57.46804323528036 33.31137643847208 33.43928226233264 0 0 0
216 1 5 0 57.23789882804857 34.3153705559328 31.02182746423602 0 0 0
217 1 9 0 58.08216333322167 32.53370953536623 31.299969717630905 0 0 0
1726 3 9 0 52.705228362025906 56.009886046151244 31.587791456120343 0 -1 0
218 1 7 0 57.19952889504987 32.330236437842125 31.56782508480233 0 0 0
1731 3 1 0 54.73888368873811 56.721614055645894 30.33427829850781 0 -1 0
205 1 8 0 55.51080482406333 34.09089610196933 33.29333734948873 0 0 0
213 1 3 0 57.96776630738671 34.20677833630765 32.972831321818745 0 0 0
215 1 1 0 58.92334036358828 34.27635624924785 33.477734240463455 0 0 0
1 1 8 0 54.01052304135145 54.8965235442464 37.69470595634405 -1 0 0
1779 3 4 0 56.506592324537735 32.75098227727413 37.72083569697274 0 0 0
1781 3 5 0 56.449492283574926 31.639225045143466 37.60760410440753 0 0 0
1778 3 3 0 57.9227299128173 33.181099884705944 37.94224236096073 0 0 0
1725 3 5 0 52.29504372702839 28.35396858708642 30.90681458463159 0 0 0
1723 3 4 0 52.534516661369544 27.405775504892734 30.559265738263374 0 0 0
1960 3 3 0 37.60470761842103 35.1832093222227 33.12191012753207 0 0 0
439 1 1 0 35.59838009575657 34.22581137280145 35.10178136304298 0 0 0
437 1 3 0 34.61498898049144 34.542281997604306 35.41724233548358 0 0 0
436 1 8 0 34.26051412458977 35.131417464906725 34.60360602092612 0 0 0
2111 4 2 0 30.411038084357415 36.38001698694241 34.041518915501946 0 0 0
2107 4 8 0 31.600648498114417 37.36067304746256 33.1779931392222 0 0 0
2108 4 3 0 31.353226980618647 36.93461873342446 34.11457743888809 0 0 0
2117 4 4 0 31.93808872153634 40.14168826178212 36.03358364937879 0 0 0
2116 4 3 0 32.108142378176105 39.048555952098866 34.95181865514052 0 0 0
1403 2 6 0 32.7758046234587 41.52195128029818 31.619251066116476 1 0 1
2123 4 3 0 33.03005074209688 41.194551892022716 35.79199203024857 0 0 0
2971 11 12 0 32.70764150328192 39.3030377922686 31.049309299383225 1 0 1
1005 2 8 0 34.20024636966178 37.09472865665935 31.14859872864538 0 0 1
445 1 4 0 35.705835504573706 37.84656653751762 36.829978122425615 0 0 0
2122 4 8 0 33.92347440946009 40.667283511085785 35.39833671378576 0 0 0
1399 2 4 0 33.15537453461981 41.6457849869455 30.56973986857596 1 0 1
1401 2 5 0 34.23243847271596 41.380335700750464 30.568448096480136 1 0 1
448 1 9 0 35.32058373450931 38.340704285991876 35.63112718622242 0 0 0
2118 4 1 0 33.11541272407437 38.587653481565106 35.12004060327524 0 0 0
1963 3 5 0 36.700066322170514 37.0154822437296 32.24959130287594 0 0 0
2115 4 8 0 32.09533052215438 39.37849858534679 33.89780956441601 0 0 0
2109 4 4 0 31.03359088678616 38.002598962794124 35.127521927475335 0 0 0
2110 4 1 0 32.24632510819218 36.290948106453165 34.3326591236696 0 0 0
2112 4 5 0 31.094056986704523 37.6959345945145 36.19888196572149 0 0 0
2119 4 5 0 30.934312032660838 40.53558756881944 35.935767559816725 0 0 0
1970 3 5 0 37.91641472484055 38.590196838979324 30.68054641904634 0 0 0
452 1 4 0 36.94005002957577 39.89860202929471 37.10487976263823 0 0 0
1978 3 9 0 36.576931917953395 41.362335548203376 32.28305058142985 0 0 0
2960 11 11 0 30.61041833014089 39.682962084177575 30.47950298015402 1 0 1
1015 2 1 0 34.78830242705131 39.49386248597455 59.71364092816346 0 0 0
449 1 7 0 35.05308666200881 39.261075005111955 35.79442041894495 0 0 0
1961 3 4 0 37.56301311695413 36.39819947861233 32.16280152688607 0 0 0
454 1 5 0 35.83101240203064 40.288125596118135 37.26078408376094 0 0 0
2962 11 12 0 30.42565278163986 40.387890375922495 31.34916870014296 1 0 1
2959 11 16 0 32.15366855941637 39.588828996172076 59.724823782589326 1 0 0
2113 4 9 0 59.249839519853694 38.538585882977785 34.86982323888639 -1 0 0
2114 4 7 0 59.471037875522924 39.106701449973315 34.11577120301295 -1 0 0
2120 4 9 0 32.11019096758216 39.5732478877757 37.31840572488803 0 0 0
2121 4 7 0 31.525957784807638 38.832501904579175 37.34442842975162 0 0 0
1959 3 8 0 38.16093017919827 35.352553042059384 34.03353822694522 0 0 0
1977 3 5 0 38.34815815275458 41.01443038324803 31.2017035169654 0 0 0
1964 3 9 0 37.4251584824854 35.8561486614047 30.879400914256543 0 0 0
1976 3 1 0 37.0348913308679 39.14790539838774 33.138581436258285 0 0 0
2963 11 12 0 59.82591718433281 38.77796963611135 31.057383590805767 0 0 1
2125 4 1 0 33.39649302674953 41.60505568358563 36.801397402649684 0 0 0
2126 4 5 0 31.555320487850118 41.86444390214197 34.41982474494087 0 0 0
2135 4 7 0 58.59863872918925 43.886777651881005 36.21381407508498 -1 0 0
447 1 5 0 34.90825043131363 37.92126886852441 37.57667061403201 0 0 0
441 1 9 0 33.519954149465825 36.036833374400786 37.00479138502178 0 0 0
438 1 4 0 34.723241341176625 35.37673474438145 36.719369817264806 0 0 0
1965 3 7 0 36.48292939086283 35.777027759412036 30.675053469325633 0 0 0
1958 3 7 0 39.6413736361561 35.00989716615071 32.00957446411053 0 0 0
634 1 4 0 41.37566401743178 35.13668291254977 36.17785917584212 0 0 0
921 2 8 0 43.60815184502753 35.13907540423055 34.482452580419746 0 0 1
455 1 9 0 37.34987543002575 40.13469297001638 35.763403739528265 0 0 0
456 1 7 0 38.191197002641815 39.65486191523057 35.66879205821481 0 0 0
1969 3 1 0 39.27874409552411 37.17279042587616 33.09422879100847 0 0 0
1975 3 4 0 37.95024672716393 40.966246610483395 32.22373325027398 0 0 0
1968 3 4 0 38.5389272835774 38.60875748012056 31.63772031418425 0 0 0
1971 3 9 0 39.8720629911622 39.08754184502726 31.240572481066163 0 0 0
636 1 5 0 42.30476653478353 35.737538044241575 36.02069014088961 0 0 0
1967 3 3 0 38.834913404408226 37.185192151171634 32.11864978794957 0 0 0
1974 3 3 0 38.0024635183611 39.500799643214414 32.727001100564244 0 0 0
1966 3 8 0 39.494239193679846 36.72255716899774 31.35453883126673 0 0 0
922 2 3 0 44.08621757984537 35.21005291688792 33.4739410150451 0 0 1
625 1 8 0 40.19525912420937 37.76183266155171 35.42834401257971 0 0 0
928 2 8 0 41.864292795886364 36.32178024610137 31.298180720287707 0 0 1
626 1 3 0 40.68902549207745 38.222188146375366 36.34425195429151 0 0 0
929 2 3 0 42.71732319002556 35.738774516105394 31.326762751755858 0 0 1
926 2 14 0 42.379457935923625 36.99549189209367 33.358162071457244 0 0 1
923 2 4 0 43.282064076059946 36.200076216567055 32.6344820601487 0 0 1
925 2 5 0 44.075716833594754 36.84929339217759 32.371863580296036 0 0 1
3031 15 12 0 43.826837323769965 38.11122112947454 34.247618694766764 27 -21 0
622 1 5 0 42.80918695922648 37.985034877231385 35.994772935293284 0 0 0
620 1 4 0 42.03103180067134 38.80568887884953 35.82478909536032 0 0 0
623 1 14 0 41.93162791962562 39.06257882878682 34.44281596171969 0 0 0
615 1 5 0 40.50480888378847 41.18935928652521 35.89474990790888 0 0 0
619 1 3 0 42.41219466001309 40.20076774636373 36.45881412090584 0 0 0
3019 15 16 0 42.89724051982432 38.303449802623916 33.669165248399146 27 -21 0
3023 15 12 0 42.40058234092556 38.89972671910476 31.58742069278219 27 -21 0
3022 15 12 0 42.83475748830083 40.165592138075695 32.72457906377425 27 -21 0
3020 15 11 0 43.070309898242854 39.20640032048119 32.36270359305628 27 -21 0
3021 15 11 0 44.602644085888926 39.302765996456294 31.960964345854023 27 -21 0
613 1 4 0 41.651865009956666 41.420333503856725 35.91186636286744 0 0 0
628 1 1 0 40.065084215258366 39.094372098045135 36.58327988718 0 0 0
1973 3 8 0 38.6516679345168 39.3745240648808 33.61440610612006 0 0 0
618 1 8 0 42.23159027985096 40.22324777614818 37.586403000929835 0 0 0
616 1 9 0 42.14303439315222 41.78030334196877 34.60032942672996 0 0 0
621 1 1 0 43.48577611772167 40.36597125272348 36.353512972397205 0 0 0
3026 15 12 0 44.88670492342836 40.34479361758534 32.090886677434106 27 -21 0
1980 3 8 0 39.979212251364565 41.3819403791631 32.89558484587099 0 0 0
627 1 4 0 40.779985611186206 37.20952524752306 37.543123571590186 0 0 0
632 1 8 0 39.39814365444545 35.95426782193691 36.50705341077537 0 0 0
633 1 3 0 40.36149279841776 35.83360001398829 37.06906355368775 0 0 0
282 1 8 0 44.88496146517511 36.8256455205211 37.53396170012813 0 0 0
3025 15 12 0 45.24330746002967 38.853706502047174 32.80937054046458 27 -21 0
1981 3 3 0 38.96131432498105 41.85642880615833 32.94319374521961 0 0 0
635 1 1 0 40.25623262236757 35.15279401803466 37.92275276502544 0 0 0
1972 3 7 0 39.77042508838898 40.04372363175793 31.081413539365883 0 0 0
3024 15 11 0 44.83021559190494 38.694579411936154 30.60040717205018 27 -21 0
919 2 9 0 46.111007413173965 35.2799899633321 34.869909936935684 0 0 1
196 1 9 0 52.37635669576249 34.95759371865245 34.27720031605471 0 0 0
188 1 5 0 50.26443709285836 36.76862624099121 36.93105007601924 0 0 0
915 2 3 0 46.47835095384539 34.965584057174325 32.402438301407635 0 0 1
916 2 4 0 45.537781604713366 35.561193706523646 33.534634675900115 0 0 1
918 2 5 0 45.67900775613184 36.61216519057314 33.58244757656306 0 0 1
268 1 8 0 47.816801791209585 39.00196690257469 33.697083250379436 0 0 0
270 1 4 0 47.883596880661585 38.73488503483625 35.76248655921362 0 0 0
911 2 5 0 48.084677968334056 36.179819640858184 32.17322370418258 0 0 1
273 1 9 0 48.296335922108895 37.475432457034955 35.28735667617721 0 0 0
258 1 5 0 49.89226224116713 38.61368620035693 32.956025388963845 0 0 0
269 1 3 0 47.94922399399886 39.68796042709401 34.51598204736316 0 0 0
271 1 1 0 47.10501635778837 40.41179648703861 34.50688028823067 0 0 0
261 1 8 0 48.68761880972204 41.17469923662047 32.2314625587929 0 0 0
256 1 4 0 49.91347177241371 39.419822795239384 32.18669103280767 0 0 0
263 1 4 0 49.178508521376116 40.56662054672815 34.301042141679694 0 0 0
265 1 5 0 50.12533148184974 40.175464008872936 34.77266736758414 0 0 0
262 1 3 0 49.578189453003816 40.73900210620582 32.80247180042611 0 0 0
264 1 1 0 50.37109716572162 41.481533422274566 32.785158658529035 0 0 0
276 1 3 0 46.411829486896224 38.57437641674064 36.23335526815681 0 0 0
272 1 5 0 48.647132919734645 39.07370378373522 36.52574922938353 0 0 0
274 1 7 0 48.460774564728545 37.49810986735277 34.34069785515321 0 0 0
255 1 3 0 51.34847794978394 39.321407968039495 31.555181007954786 0 0 0
912 2 14 0 46.5165007172263 37.239908120403186 31.48478342743798 0 0 1
909 2 4 0 47.20419322102083 35.98823209554931 31.531165764162417 0 0 1
259 1 9 0 48.948736702002776 39.17717292638604 31.197802474013717 0 0 0
2821 1 12 0 49.43919301313106 41.281706348951246 36.70113276925428 0 0 0
194 1 1 0 50.96338537904545 36.87205695385865 34.54078491819624 0 0 0
275 1 8 0 45.844673493589504 37.791020846053144 35.6768196272883 0 0 0
254 1 8 0 52.12668205644195 39.8828584007816 32.13033155261119 0 0 0
278 1 1 0 45.95478163894191 39.583600271390225 35.956200832743754 0 0 0
266 1 14 0 48.864507253969606 41.857668176669414 34.734728295065516 0 0 0
2812 1 12 0 51.31230825691957 42.141767648898266 34.87553706874516 0 0 0
191 1 8 0 52.079824840773725 37.96482640341438 35.32674156237265 0 0 0
257 1 1 0 51.59406818868311 38.28455820498019 31.691495048388838 0 0 0
2301 4 5 0 46.97928745193879 41.79067096289856 36.33100735583635 0 0 0
2809 1 16 0 49.43325614663638 42.213179603786166 36.02040382253572 0 0 0
280 1 9 0 47.3246857645262 37.22595596131042 37.964446422426484 0 0 0
277 1 4 0 46.40502019043093 38.27507246283146 37.69405518898805 0 0 0
192 1 3 0 51.800362974010596 36.93671987653888 35.30397748698739 0 0 0
187 1 1 0 51.79097938045344 38.364072749541684 37.75712169676635 0 0 0
260 1 7 0 48.795669136329664 38.2074596193429 31.247054956729183 0 0 0
197 1 7 0 51.71563944824513 34.80087514718745 34.937179106429554 0 0 0
186 1 4 0 51.33312605968166 36.52089400281699 36.71157703001348 0 0 0
2310 4 7 0 45.52544064491245 41.838701877765914 37.09815083336558 0 0 0
193 1 4 0 52.98884741783217 36.0619858593646 34.79558989318333 0 0 0
281 1 7 0 48.02488963547264 37.226411735145746 37.299293321148205 0 0 0
2276 4 8 0 44.647477285602896 41.54231952468566 59.45503799520802 0 0 -1
220 1 3 0 59.23078440290116 34.72225136409621 30.881499606834495 0 0 0
189 1 9 0 51.658017683613984 35.174683115840736 36.86648962334742 0 0 0
185 1 3 0 52.171796632915644 37.33186606982524 37.729852059968266 0 0 0
190 1 7 0 51.137829763152745 34.82462966976028 37.597859206065465 0 0 0
208 1 1 0 55.602926253375145 35.18417030401368 34.66567808455493 0 0 0
195 1 5 0 53.790793533483665 35.78038139592315 35.52403131296845 0 0 0
211 1 7 0 58.6603120501955 35.51980757952351 34.30439251362018 0 0 0
204 1 7 0 53.12239570400254 35.35239272035607 32.03932514563726 0 0 0
203 1 9 0 54.04650386971422 35.35070433394936 31.815745790506163 0 0 0
206 1 3 0 55.68203418002891 35.148695802233576 33.57862722327026 0 0 0
207 1 4 0 57.16260631971146 35.43642328756165 33.215333684257 0 0 0
210 1 9 0 57.78427120107959 35.89102485939278 34.40245570765002 0 0 0
184 1 8 0 53.09198042167578 37.348357315815136 37.2797520737138 0 0 0
200 1 4 0 54.742326539595 36.08841191604713 32.77987762877991 0 0 0
202 1 5 0 55.319427626099845 36.93629061483096 32.3301826605135 0 0 0
201 1 1 0 52.976057107007534 37.17485017440564 33.0284917569714 0 0 0
209 1 5 0 57.285951069853176 36.14556097730931 32.33569219645851 0 0 0
199 1 3 0 53.725445824910466 36.79412660680877 33.68606759537277 0 0 0
198 1 8 0 54.24127509225928 37.69420048230339 34.09816558566802 0 0 0
1190 2 1 0 56.6349736942902 37.57686511758584 35.795419783545974 0 0 0
1187 2 8 0 55.01231719877728 37.72523645154549 36.253870329062714 0 0 0
1192 2 14 0 55.772731700976905 39.664151447301265 34.795548831823105 0 0 0
2987 12 18 0 57.73665949102823 40.56504621525424 34.035426957757274 0 0 0
2982 12 15 0 56.41231695006728 40.81779458087535 34.29735857951232 0 0 0
1188 2 3 0 55.98472388153621 38.09899289503745 36.53049131122475 0 0 0
1197 2 1 0 53.84423710966595 40.33744075769026 36.244316654766834 0 0 0
1189 2 4 0 55.89011550835775 39.59802883218062 36.23254123386756 0 0 0
1191 2 5 0 56.86018603345461 40.07569512680381 36.614190295885884 0 0 0
1195 2 3 0 54.633656455182134 40.08587279125494 36.960615768824624 0 0 0
1193 2 17 0 58.165533859524125 41.26296426127303 34.55973032972028 0 0 0
2988 12 12 0 56.490996431172846 41.59556876277084 35.15030316418641 0 0 0
2979 12 11 0 55.79835994383154 41.09504406063731 32.89055288524323 0 0 0
2984 12 12 0 55.415321457684456 40.09703894499357 32.555836551460644 0 0 0
2980 12 12 0 53.92913289792328 41.765326652838894 33.52292584227115 0 0 0
1183 2 1 0 58.36890570875318 37.30663174933558 37.06926001455741 0 0 0
250 1 1 0 53.49341481672819 39.51205421737173 30.54140259619636 0 0 0
2983 12 12 0 56.68217184280746 41.43464238653004 32.330045899919554 0 0 0
2977 12 12 0 54.443242861636705 41.573725140659015 30.786206979674585 0 0 0
222 1 1 0 59.14427789454017 35.76484994760023 31.323306509988555 0 0 0
1194 2 8 0 54.265752825673154 39.20484803864665 37.477339525463684 0 0 0
1979 3 7 0 36.10242211419264 40.66016220096177 31.814154416256258 0 0 0
1396 2 7 0 32.457769108112146 44.22449043254377 32.24350274752312 1 0 1
1395 2 9 0 31.53931651871328 43.930346341418876 32.044448083701035 1 0 1
2124 4 4 0 32.461793803063635 42.312734645518226 34.90634099591853 0 0 0
464 1 8 0 36.252840550762436 42.555163764477854 36.573671672972196 0 0 0
1398 2 3 0 32.86815859565328 43.04313595437177 59.77144186477881 1 0 0
2127 4 9 0 33.410322846303 42.638639597617534 33.92442145977009 0 0 0
2128 4 7 0 33.15293295755654 42.21608400413899 33.09155165635536 0 0 0
1998 3 5 0 33.82082266783303 45.55524553534339 33.2403413583535 0 0 0
2003 3 4 0 33.16760549918421 48.32460362944049 32.193616399129105 0 0 0
2005 3 5 0 33.46133677251576 48.603350215271504 31.13773995331388 0 0 0
2004 3 1 0 34.342804728197805 47.91426713014704 34.05253614949951 0 0 0
2002 3 3 0 34.34434944553103 47.663726203854196 32.892073928295794 0 0 0
2006 3 9 0 32.02215889236725 47.51832189675797 32.07210947176379 0 0 0
2001 3 8 0 35.15898661096105 48.247497428418995 32.49932053886589 0 0 0
1996 3 4 0 34.606987344309836 46.147497437180874 32.744300283443394 0 0 0
1390 2 8 0 31.29377964442414 45.6926102494871 30.360279073569465 1 0 1
2007 3 7 0 32.14286074561189 46.85881784476275 32.75712073254465 0 0 0
1397 2 8 0 33.63375393618424 43.7039676955889 30.70516861570113 1 0 1
1999 3 9 0 34.56226672010257 45.898268475992666 31.373252843280714 0 0 0