LAMMPS data file via write_data, version 23 Jun 2022, timestep = 1204999

2997 atoms
18 atom types
3050 bonds
16 bond types
5803 angles
31 angle types

29.73888410076014 60.36811589923866 xlo xhi
26.824384100760135 57.453615899238656 ylo yhi
29.707886100760142 60.33711789923866 zlo zhi

Masses

1 1.00794
2 1.00794
3 12.0107
4 12.0107
5 1.00794
6 1.00794
7 1.00794
8 1.00794
9 15.9994
10 12.0107
11 12.0107
12 1.00794
13 15.9994
14 15.9994
15 12.0107
16 12.0107
17 1.00794
18 15.9994

Pair Coeffs # lj/cut

1 0.038 2.44997
2 0.038 2.44997
3 0.039 3.87541
4 0.039 3.87541
5 0.038 2.44997
6 0.038 2.44997
7 0 0
8 0.038 2.44997
9 0.228 2.85978
10 0.148 3.61705
11 0.039 3.87541
12 0.038 2.44997
13 0.228 2.85978
14 0.228 2.85978
15 0.148 3.61705
16 0.148 3.61705
17 0 0
18 0.228 2.85978

Bond Coeffs # harmonic

1 340.618 1.105
2 340.618 1.105
3 322.716 1.526
4 340.618 1.105
5 340.618 1.105
6 340.618 1.105
7 384 1.42
8 540.634 0.96
9 283.092 1.52
10 340.618 1.105
11 615.322 1.23
12 322.716 1.526
13 340.618 1.105
14 384 1.42
15 540.634 0.96
16 384 1.42

Angle Coeffs # harmonic

1 39.5 106.4
2 44.4 110
3 39.5 106.4
4 44.4 110
5 39.5 106.4
6 46.6 110.5
7 44.4 110
8 44.4 110
9 70 109.5
10 46.6 110.5
11 44.4 110
12 58.5 106
13 39.5 106.4
14 57 109.5
15 57 109.5
16 46.6 110.5
17 45 109.5
18 50 120
19 68 120
20 46.6 110.5
21 44.4 110
22 55 120
23 39.5 106.4
24 70 109.5
25 57 109.5
26 70 109.5
27 57 109.5
28 80 109.5
29 70 106
30 80 109.5
31 58.5 106

Atoms

986 2 4 0 32.0368 31.4883 33.6463 0 0 1
987 2 1 0 32.174 29.5819 34.8256 0 0 1
985 2 3 0 32.6444 30.6408 34.8143 0 0 1
992 2 3 0 31.9998 30.774 32.31 0 0 1
994 2 1 0 32.2222 29.7092 32.4978 0 0 1
2203 4 5 0 33.9874 57.3121 35.0152 0 0 0
991 2 8 0 31.0154 30.7076 31.85 0 0 1
993 2 4 0 33.0619 31.2386 31.3162 0 0 1
989 2 14 0 30.7226 31.7994 34.0825 0 0 1
984 2 8 0 32.2228 31.1798 35.7062 0 0 1
981 2 5 0 34.639 31.232 34.2654 0 0 1
979 2 4 0 34.1078 30.7516 35.0694 0 0 1
3007 14 12 0 60.1898 27.4864 60.2429 -9 -2 1
3013 14 12 0 58.7817 29.333 59.2715 -9 -2 1
2197 4 9 0 30.748 57.1377 34.1398 0 0 0
980 2 1 0 34.5777 28.8454 34.2303 0 0 1
2198 4 7 0 31.2885 27.1992 33.7312 0 1 0
978 2 3 0 34.8546 29.4833 35.0987 0 0 1
982 2 9 0 34.3622 31.468 36.272 0 0 1
3009 14 11 0 59.5381 30.0731 59.4887 -9 -2 1
983 2 7 0 33.5411 31.8459 36.5351 0 0 1
2212 4 7 0 35.8986 27.1658 30.9087 0 1 0
996 2 14 0 33.3724 30.1862 30.4476 0 0 1
3016 14 12 0 31.9294 27.7332 30.7227 -8 -2 2
973 2 1 0 36.4503 27.8658 33.9662 0 0 1
966 2 1 0 36.9821 30.9469 32.7251 0 0 1
956 2 8 0 35.9745 30.2705 60.2358 0 0 0
974 2 5 0 36.734 30.6428 35.1428 0 0 1
952 2 1 0 38.2733 33.2561 30.2943 0 0 1
959 2 1 0 36.2744 31.5238 30.8024 0 0 1
964 2 3 0 37.1223 29.9839 32.3385 0 0 1
965 2 4 0 37.9913 29.2115 33.3067 0 0 1
958 2 4 0 37.7442 29.9639 30.9413 0 0 1
957 2 3 0 36.811 30.8415 30.1321 0 0 1
960 2 5 0 38.7874 30.3701 31.0315 0 0 1
961 2 9 0 37.7701 28.6596 30.3786 0 0 1
968 2 9 0 39.037 29.9515 33.899 0 0 1
969 2 7 0 38.7226 30.1848 34.7887 0 0 1
967 2 5 0 38.4876 28.3742 32.7243 0 0 1
1935 3 5 0 38.8867 32.4209 32.983 0 0 0
1936 3 9 0 39.0422 32.605 35.0488 0 0 0
972 2 4 0 36.3982 29.6431 35.3665 0 0 1
971 2 3 0 37.1314 28.6141 34.4298 0 0 1
963 2 8 0 36.09 29.6035 32.3446 0 0 1
962 2 7 0 37.7512 28.838 60.0484 0 0 0
1929 3 9 0 41.0817 32.3636 31.6796 0 0 0
1930 3 7 0 41.8096 32.3417 31.0414 0 0 0
1937 3 7 0 39.0313 33.28 35.725 0 0 0
1928 3 5 0 41.3538 31.6246 33.6272 0 0 0
1926 3 4 0 41.4988 32.5495 32.9998 0 0 0
691 1 1 0 41.9727 57.1175 32.8815 0 -1 0
970 2 8 0 37.8006 27.9576 35.0827 0 0 1
684 1 1 0 41.9144 28.3896 34.0407 0 0 0
681 1 8 0 43.2878 28.9856 34.8877 0 0 0
682 1 3 0 42.7284 28.0482 34.7045 0 0 0
1922 3 14 0 44.8764 31.7235 33.8029 0 0 0
1714 3 8 0 46.9221 30.0049 35.0994 0 0 0
2884 6 16 0 45.7632 29.2077 31.7211 -1 -3 2
2896 6 12 0 45.0901 29.5194 32.5852 -1 -3 2
2887 6 12 0 44.0447 29.2331 30.25 -1 -3 2
1715 3 3 0 47.657 29.2826 35.3282 0 0 0
1717 3 1 0 47.1455 28.3556 34.9544 0 0 0
1925 3 3 0 43.0371 33.0057 33.0024 0 0 0
1924 3 8 0 43.551 32.5434 32.1678 0 0 0
1919 3 4 0 43.7808 32.5423 34.2493 0 0 0
1921 3 5 0 43.1084 31.9119 34.8623 0 0 0
688 1 8 0 43.3533 27.2227 32.0188 0 0 0
1914 3 5 0 46.1409 32.756 35.6238 0 0 0
900 2 8 0 48.9678 32.7329 30.0094 0 0 1
1719 3 14 0 48.532 30.5747 33.5501 0 0 0
1724 3 1 0 49.6332 27.5207 34.6513 0 0 0
1716 3 4 0 48.8939 29.6269 34.5158 0 0 0
1721 3 8 0 48.7113 27.82 33.1973 0 0 0
1722 3 3 0 49.4415 28.3498 33.8811 0 0 0
1718 3 5 0 49.689 29.9539 35.1772 0 0 0
1728 3 8 0 50.2967 27.5051 31.6333 0 0 0
1725 3 5 0 50.6817 29.6959 32.904 0 0 0
1723 3 4 0 50.7333 28.6821 33.2917 0 0 0
1726 3 9 0 51.654 28.6832 34.3328 0 0 0
1732 3 5 0 52.7879 28.9377 31.7591 0 0 0
203 1 9 0 52.43 31.5814 33.6191 0 0 0
1730 3 4 0 52.1968 28.2393 31.293 0 0 0
1729 3 3 0 51.1695 27.6741 32.2534 0 0 0
1733 3 9 0 51.5643 28.8525 30.1662 0 0 0
204 1 7 0 51.4761 31.3801 33.6079 0 0 0
1727 3 7 0 52.2899 29.3277 34.0484 0 0 0
1731 3 1 0 51.5183 57.402 32.6871 0 -1 0
1734 3 7 0 51.9875 28.3902 60.0368 0 0 -1
200 1 4 0 52.4879 32.4171 32.4553 0 0 0
202 1 5 0 52.5354 31.747 31.5723 0 0 0
1736 3 3 0 53.1522 27.1009 30.8097 0 0 0
4 1 1 0 53.6744 27.3238 36.8959 -1 1 0
1735 3 8 0 52.6191 56.811 30.4556 0 -1 0
3018 14 12 0 59.7317 31.7183 30.3113 -9 -2 2
1737 3 4 0 54.2638 27.4611 29.7751 0 0 0
209 1 5 0 54.7946 31.367 32.8862 0 0 0
1753 3 5 0 58.4909 27.5566 31.33 0 0 0
1760 3 5 0 57.5886 30.2613 33.5249 0 0 0
1758 3 4 0 58.0935 29.3263 33.7164 0 0 0
217 1 9 0 58.1887 33.4491 34.3307 0 0 0
216 1 5 0 57.8074 33.3873 32.3249 0 0 0
1761 3 9 0 59.3491 29.3116 33.1004 0 0 0
1762 3 7 0 59.7971 28.4558 33.2321 0 0 0
3014 14 12 0 59.4264 30.7371 58.6134 -9 -2 1
1759 3 1 0 56.5596 28.6807 32.4351 0 0 0
1757 3 3 0 57.2532 28.2352 33.1045 0 0 0
1739 3 5 0 54.8372 28.3427 30.0219 0 0 0
1751 3 4 0 57.9089 27.1796 32.1981 0 0 0
1752 3 1 0 55.912 57.2657 32.1029 0 -1 0
1756 3 8 0 56.6649 27.7376 33.9323 0 0 0
207 1 4 0 55.0254 32.4494 32.5996 0 0 0
205 1 8 0 53.6716 34.0437 33.1884 0 0 0
212 1 8 0 56.1729 32.216 34.427 0 0 0
1755 3 7 0 58.9277 57.2939 33.7974 0 -1 0
1746 3 5 0 57.0941 27.5764 29.7709 0 0 0
3093 19 12 0 56.7815 29.8747 58.5971 -3 0 0
988 2 5 0 32.6193 32.4437 33.4801 0 0 1
995 2 5 0 34.032 31.4986 31.7534 0 0 1
999 2 3 0 32.5031 32.4566 30.5245 0 0 1
998 2 8 0 32.0688 33.1348 31.3285 0 0 1
1953 3 3 0 34.4935 36.3554 33.661 0 0 0
1954 3 4 0 33.053 36.6207 33.2467 0 0 0
1955 3 1 0 34.9536 37.1649 34.2434 0 0 0
1947 3 4 0 34.6304 35.161 34.5919 0 0 0
1949 3 5 0 34.1564 34.2547 34.0994 0 0 0
1951 3 7 0 34.3937 34.8423 36.5107 0 0 0
1952 3 8 0 35.1101 36.3375 32.7601 0 0 0
1957 3 9 0 32.7459 35.4926 32.4548 0 0 0
1958 3 7 0 32.2779 35.8342 31.6579 0 0 0
1956 3 5 0 32.3529 36.5701 34.102 0 0 0
1004 2 7 0 34.9889 33.3307 30.848 0 0 1
1003 2 9 0 34.3566 34.0053 30.5475 0 0 1
1959 3 8 0 33.633 37.689 31.4554 0 0 0
1960 3 3 0 32.9936 37.914 32.3608 0 0 0
1962 3 1 0 33.298 38.8652 32.8592 0 0 0
1950 3 9 0 34.0414 35.4636 35.8255 0 0 0
1948 3 1 0 36.3171 35.0808 35.7861 0 0 0
2142 4 7 0 58.4217 39.2571 33.4792 -1 0 0
2129 4 8 0 31.8295 36.4218 36.4642 0 0 0
2136 4 8 0 59.4795 36.7563 34.8701 -1 0 0
1931 3 8 0 40.6465 34.543 32.805 0 0 0
1944 3 7 0 35.0767 33.5108 33.4415 0 0 0
1942 3 5 0 36.8403 32.9634 35.0296 0 0 0
1946 3 3 0 36.1335 34.9628 34.7821 0 0 0
1945 3 8 0 36.6012 35.84 34.2497 0 0 0
1943 3 9 0 35.9469 33.2347 33.1645 0 0 0
1940 3 4 0 36.7446 33.7108 34.2397 0 0 0
1933 3 4 0 39.1848 33.1739 33.7886 0 0 0
1941 3 1 0 38.6437 34.9947 34.2423 0 0 0
1939 3 3 0 38.1174 34.2643 33.7362 0 0 0
1938 3 8 0 37.9111 34.7172 32.6586 0 0 0
1934 3 1 0 41.0009 33.9735 34.5753 0 0 0
1932 3 3 0 40.6242 33.6948 33.5376 0 0 0
931 2 1 0 40.8043 36.5237 31.6552 0 0 1
637 1 9 0 37.8342 37.9932 34.381 0 0 0
638 1 7 0 38.06 37.6714 33.4859 0 0 0
923 2 4 0 42.2084 38.1519 31.4944 0 0 1
938 2 1 0 38.5837 36.6448 30.729 0 0 1
929 2 3 0 40.8525 37.5532 31.2083 0 0 1
935 2 8 0 38.2819 37.8789 60.2253 0 0 0
936 2 3 0 38.8964 36.9683 29.7489 0 0 1
636 1 5 0 39.6818 38.7087 34.0889 0 0 0
634 1 4 0 38.8831 38.8726 34.7701 0 0 0
928 2 8 0 40.0088 38.1127 31.6874 0 0 1
643 1 5 0 39.9616 36.4434 35.4572 0 0 0
930 2 4 0 40.362 37.3525 29.7767 0 0 1
921 2 8 0 43.1196 37.5613 33.2976 0 0 1
644 1 9 0 41.5273 37.852 35.2701 0 0 0
645 1 7 0 41.9869 37.0896 34.9486 0 0 0
922 2 3 0 43.1661 37.2206 32.2414 0 0 1
924 2 1 0 42.8138 36.2112 32.3775 0 0 1
1916 3 7 0 47.2246 34.7533 34.6959 0 0 0
1927 3 1 0 42.9683 34.0248 32.8891 0 0 0
1915 3 9 0 46.4021 34.3775 34.3364 0 0 0
1918 3 3 0 44.1444 33.6767 35.1654 0 0 0
919 2 9 0 45.3781 36.6995 32.6912 0 0 1
920 2 7 0 44.7824 36.3214 33.3777 0 0 1
907 2 8 0 46.7203 34.4979 31.2188 0 0 1
916 2 4 0 44.5072 37.1059 31.6666 0 0 1
918 2 5 0 44.7567 38.0722 31.2437 0 0 1
911 2 5 0 46.5792 36.8753 30.4561 0 0 1
914 2 8 0 44.3023 35.1509 30.7917 0 0 1
915 2 3 0 44.6034 36.1745 30.5088 0 0 1
1917 3 8 0 43.7607 34.6793 34.8581 0 0 0
265 1 5 0 47.1259 39.1017 31.9453 0 0 0
1912 3 4 0 45.7326 33.7034 35.3798 0 0 0
926 2 14 0 42.0366 39.1825 32.4435 0 0 1
272 1 5 0 46.1864 38.8663 34.0336 0 0 0
925 2 5 0 42.6928 38.6566 30.5998 0 0 1
908 2 3 0 46.7113 34.7095 30.1255 0 0 1
909 2 4 0 45.9982 36.093 29.8825 0 0 1
912 2 14 0 45.9908 36.4265 59.1287 0 0 0
917 2 1 0 43.753 36.3248 29.7247 0 0 1
201 1 1 0 50.3958 32.7599 31.7704 0 0 0
197 1 7 0 49.2848 33.3421 34.8339 0 0 0
902 2 4 0 48.1386 34.6986 60.2955 0 0 0
906 2 7 0 48.8791 34.8266 31.4311 0 0 1
199 1 3 0 51.2091 33.2664 32.2907 0 0 0
196 1 9 0 49.3866 33.502 33.9138 0 0 0
195 1 5 0 51.4371 33.7412 34.4607 0 0 0
193 1 4 0 50.7353 33.8565 33.6777 0 0 0
905 2 9 0 49.0208 35.2735 30.6217 0 0 1
198 1 8 0 51.5451 34.0132 31.5476 0 0 0
191 1 8 0 51.447 35.601 32.6903 0 0 0
192 1 3 0 50.7336 35.3795 33.4163 0 0 0
186 1 4 0 50.9236 36.147 34.7526 0 0 0
194 1 1 0 49.7829 35.6984 33.0241 0 0 0
185 1 3 0 50.4738 37.5834 34.6292 0 0 0
184 1 8 0 51.0032 38.1608 33.9136 0 0 0
243 1 1 0 52.332 36.1146 30.4601 0 0 0
244 1 5 0 50.5855 37.1726 60.1773 0 0 -1
242 1 4 0 51.4491 37.3256 59.4885 0 0 -1
241 1 3 0 52.6594 36.9684 29.7925 0 0 0
240 1 8 0 52.756 37.8942 30.3757 0 0 0
187 1 1 0 49.5807 37.7378 34.0451 0 0 0
235 1 4 0 53.9828 36.5481 59.761 0 0 -1
901 2 3 0 48.5479 33.374 59.8431 0 0 0
258 1 5 0 48.1918 38.761 60.2851 0 0 -1
238 1 14 0 53.8399 35.5564 58.8691 0 0 -1
2128 4 7 0 31.5628 34.7237 35.3432 0 0 0
206 1 3 0 53.7719 33.237 32.4308 0 0 0
208 1 1 0 53.8014 33.8486 31.5399 0 0 0
218 1 7 0 57.6794 33.8545 35.0366 0 0 0
210 1 9 0 55.7267 32.42 31.3761 0 0 0
219 1 8 0 57.3555 35.6566 34.0578 0 0 0
224 1 9 0 58.9939 36.0849 32.2934 0 0 0
213 1 3 0 55.8876 33.0032 33.6823 0 0 0
214 1 4 0 57.2441 33.6626 33.2479 0 0 0
211 1 7 0 55.0819 32.032 30.7352 0 0 0
225 1 7 0 58.9573 36.6331 33.0716 0 0 0
215 1 1 0 55.3861 33.6667 34.3509 0 0 0
223 1 5 0 57.6112 35.1072 31.0645 0 0 0
220 1 3 0 56.9095 35.1984 33.1614 0 0 0
221 1 4 0 57.6549 35.8353 31.9446 0 0 0
226 1 8 0 57.8016 37.8669 31.344 0 0 0
227 1 3 0 56.9799 37.1307 31.4481 0 0 0
229 1 1 0 56.4667 37.6564 32.2938 0 0 0
236 1 1 0 55.1917 35.1267 30.2234 0 0 0
228 1 4 0 56.2931 36.9204 30.0728 0 0 0
234 1 3 0 54.9546 36.2037 30.2786 0 0 0
222 1 1 0 55.8649 35.5252 33.3018 0 0 0
1190 2 1 0 54.0047 38.1958 36.1582 0 0 0
233 1 8 0 54.4711 36.4596 31.2238 0 0 0
1189 2 4 0 55.0546 39.9247 35.3461 0 0 0
1192 2 14 0 55.0841 39.2887 34.0934 0 0 0
1187 2 8 0 54.5582 39.4193 37.2741 0 0 0
1188 2 3 0 54.9065 38.8291 36.3909 0 0 0
1184 2 5 0 56.67 37.8006 35.8206 0 0 0
1964 3 9 0 30.9891 37.0366 31.2432 0 0 0
1961 3 4 0 31.5358 38.1782 31.8183 0 0 0
1963 3 5 0 30.9265 38.5099 32.6304 0 0 0
1969 3 1 0 32.2662 39.0778 30.0206 0 0 0
1968 3 4 0 31.5251 40.6903 31.4566 0 0 0
1967 3 3 0 31.5046 39.283 30.7524 0 0 0
454 1 5 0 33.4303 41.514 34.0171 0 0 0
1970 3 5 0 31.7974 40.4917 32.4893 0 0 0
452 1 4 0 34.487 41.3037 34.2876 0 0 0
1966 3 8 0 30.492 39.2942 30.198 0 0 0
1971 3 9 0 30.181 41.2301 31.5387 0 0 0
1965 3 7 0 31.0515 37.0443 30.261 0 0 0
1977 3 5 0 31.9663 43.1487 32.3612 0 0 0
1972 3 7 0 30.2274 41.9912 32.1375 0 0 0
2143 4 8 0 29.89 40.1415 33.9588 0 0 0
459 1 4 0 34.5792 43.4469 35.6045 0 0 0
2144 4 3 0 60.129 40.1721 34.9694 -1 0 0
461 1 5 0 33.5924 43.5974 35.4522 0 0 0
455 1 9 0 35.1521 40.6658 33.1561 0 0 0
448 1 9 0 32.6633 38.8648 35.6121 0 0 0
451 1 3 0 34.6107 40.2523 35.3609 0 0 0
458 1 3 0 35.2511 42.5884 34.5471 0 0 0
450 1 8 0 34.8763 39.3534 34.9078 0 0 0
2153 4 1 0 30.7 42.4548 35.968 0 0 0
1986 3 7 0 59.7363 44.8797 30.4112 -1 0 0
456 1 7 0 35.6412 41.3689 32.6925 0 0 0
457 1 8 0 35.4011 43.1808 33.6104 0 0 0
629 1 5 0 40.1464 40.922 33.7435 0 0 0
628 1 1 0 38.5945 43.0568 35.2331 0 0 0
626 1 3 0 38.9904 42.6798 34.3451 0 0 0
625 1 8 0 38.1869 42.5309 33.5456 0 0 0
632 1 8 0 37.667 40.4978 34.066 0 0 0
633 1 3 0 38.4417 40.3101 34.8362 0 0 0
627 1 4 0 39.5888 41.3098 34.5874 0 0 0
620 1 4 0 39.9923 43.7303 33.9193 0 0 0
630 1 9 0 40.482 41.3162 35.7228 0 0 0
623 1 14 0 39.9649 43.711 32.5248 0 0 0
460 1 1 0 36.2992 42.4771 34.8366 0 0 0
621 1 1 0 38.5242 45.3293 34.2535 0 0 0
635 1 1 0 37.9046 40.4096 35.7723 0 0 0
622 1 5 0 41.0383 43.3646 34.3482 0 0 0
619 1 3 0 39.6285 45.149 34.2602 0 0 0
274 1 7 0 44.9197 40.2355 32.2586 0 0 0
275 1 8 0 45.5433 41.6431 35.1645 0 0 0
273 1 9 0 44.6576 39.9201 33.1411 0 0 0
276 1 3 0 45.6403 40.6075 35.2639 0 0 0
270 1 4 0 45.9117 39.9147 33.8587 0 0 0
268 1 8 0 46.7002 41.6339 32.7425 0 0 0
269 1 3 0 46.9949 40.6997 33.18 0 0 0
278 1 1 0 46.6063 40.442 35.8587 0 0 0
271 1 1 0 47.6981 40.9347 33.9338 0 0 0
2302 4 14 0 46.7316 44.646 32.9567 0 0 0
2299 4 4 0 45.6407 45.2762 33.6105 0 0 0
3031 15 12 0 42.882 42.4478 32.0429 27 -21 0
2301 4 5 0 44.7321 44.6703 33.6645 0 0 0
631 1 7 0 41.1487 40.6478 35.4998 0 0 0
263 1 4 0 47.6816 39.9926 32.0098 0 0 0
261 1 8 0 46.6958 41.1983 30.4017 0 0 0
262 1 3 0 47.6603 40.7427 30.6439 0 0 0
2294 4 5 0 43.7676 45.0876 31.719 0 0 0
3019 15 16 0 43.3649 42.1764 31.0475 27 -21 0
250 1 1 0 51.9018 39.4917 59.7874 0 0 -1
266 1 14 0 49.0927 39.6243 32.2042 0 0 0
177 1 8 0 49.797 40.2819 35.1099 0 0 0
264 1 1 0 48.4236 41.5898 30.6307 0 0 0
257 1 1 0 50.2118 40.2189 29.9553 0 0 0
2813 1 12 0 50.7913 43.5334 31.801 0 0 0
2810 1 11 0 50.0699 44.2236 32.1616 0 0 0
2812 1 12 0 49.0784 43.9676 31.7142 0 0 0
2809 1 16 0 49.7236 43.9783 33.6903 0 0 0
1201 2 8 0 53.1304 43.7199 34.797 0 0 0
2821 1 12 0 48.938 44.6162 34.1525 0 0 0
1208 2 8 0 54.5666 45.385 33.2844 0 0 0
1202 2 3 0 54.1654 43.3464 34.8362 0 0 0
1194 2 8 0 53.0405 40.4966 35.9742 0 0 0
1209 2 3 0 55.3179 45.5437 34.1686 0 0 0
1211 2 1 0 56.2841 45.38 33.6213 0 0 0
256 1 4 0 48.111 39.8387 60.1499 0 0 -1
2817 1 16 0 52.9901 45.5117 30.8695 0 0 0
2823 1 12 0 53.3561 44.4279 30.7377 0 0 0
1193 2 17 0 54.7471 39.9138 33.4523 0 0 0
2150 4 8 0 30.2641 42.6533 34.2084 0 0 0
2151 4 3 0 29.8274 42.5952 35.1865 0 0 0
2145 4 4 0 59.4372 41.5089 35.23 -1 0 0
1197 2 1 0 53.4513 41.0416 34.2873 0 0 0
1195 2 3 0 53.9094 40.9072 35.3448 0 0 0
1204 2 1 0 54.3991 43.0443 33.7946 0 0 0
2981 12 12 0 56.2442 41.46 59.4449 0 0 -1
2975 12 11 0 56.1797 42.9662 30.4018 0 0 0
2977 12 12 0 55.3552 43.5035 30.9052 0 0 0
2978 12 12 0 56.9398 42.8313 31.2099 0 0 0
2976 12 11 0 55.8466 41.6714 29.7845 0 0 0
2147 4 5 0 58.7534 41.571 34.3456 -1 0 0
2141 4 9 0 58.2301 38.633 34.2242 -1 0 0
2988 12 12 0 54.4015 40.2191 31.4595 0 0 0
1203 2 4 0 55.075 44.4921 35.2249 0 0 0
1196 2 4 0 54.3335 42.2845 35.8784 0 0 0
2982 12 15 0 53.7708 40.8248 30.8694 0 0 0
2155 4 9 0 58.7617 44.125 34.4393 -1 0 0
2156 4 7 0 57.868 43.9983 34.7915 -1 0 0
2152 4 4 0 59.652 43.8859 35.4844 -1 0 0
2154 4 5 0 59.2312 43.7028 36.4557 -1 0 0
1191 2 5 0 56.0242 40.4487 35.4975 0 0 0
2138 4 4 0 59.2764 38.8653 35.2358 -1 0 0
1198 2 5 0 55.26 42.4262 36.5389 0 0 0
2980 12 12 0 56.2696 40.8733 30.4328 0 0 0
2987 12 18 0 52.5695 41.0455 31.2427 0 0 0
1982 3 4 0 30.7649 45.0524 31.3776 0 0 0
1989 3 4 0 30.486 47.591 31.5847 0 0 0
1988 3 3 0 31.0887 46.4368 30.7424 0 0 0
1984 3 5 0 30.9473 45.0479 32.4786 0 0 0
1991 3 5 0 30.3713 47.2854 32.6057 0 0 0
1998 3 5 0 33.0233 47.8747 32.7686 0 0 0
1992 3 9 0 59.8143 47.8355 31.1713 -1 0 0
1995 3 3 0 31.4737 48.7944 31.495 0 0 0
1997 3 1 0 31.8594 48.8377 30.4385 0 0 0
464 1 8 0 35.9508 44.8884 34.7175 0 0 0
1996 3 4 0 32.5185 48.926 32.5732 0 0 0
1999 3 9 0 31.9645 49.3367 33.7821 0 0 0
1994 3 8 0 30.9718 49.7582 31.562 0 0 0
2004 3 1 0 33.8784 49.7176 31.1634 0 0 0
2005 3 5 0 34.987 49.2684 33.4045 0 0 0
2000 3 7 0 32.6573 49.2189 34.4198 0 0 0
2002 3 3 0 33.4697 49.9656 32.1387 0 0 0
465 1 3 0 35.2123 44.8589 35.5285 0 0 0
470 1 7 0 34.4666 45.8476 33.442 0 0 0
469 1 9 0 33.6928 45.7598 33.9933 0 0 0
466 1 4 0 34.147 45.9116 35.3144 0 0 0
471 1 8 0 33.8953 48.079 35.2446 0 0 0
1987 3 8 0 30.6888 46.5557 29.7136 0 0 0
1985 3 9 0 60.0123 44.7483 31.2992 -1 0 0
1993 3 7 0 59.4118 46.9804 31.301 -1 0 0
2003 3 4 0 34.7537 50.2077 32.9011 0 0 0
2008 3 8 0 33.8297 51.1162 34.5268 0 0 0
474 1 1 0 35.5198 47.5036 35.1702 0 0 0
2157 4 8 0 30.6561 45.1962 34.8093 0 0 0
2164 4 8 0 30.8901 47.5661 35.7932 0 0 0
2158 4 3 0 29.9177 45.0842 35.6925 0 0 0
2160 4 1 0 30.529 45.095 36.676 0 0 0
467 1 1 0 35.7626 45.0192 36.4284 0 0 0
106 1 7 0 36.4301 46.6785 31.5122 0 0 0
105 1 9 0 36.7527 47.5734 31.5767 0 0 0
618 1 8 0 40.0545 45.7946 33.4233 0 0 0
112 1 9 0 40.267 47.9263 31.5884 0 0 0
111 1 5 0 38.635 48.6232 32.5323 0 0 0
109 1 4 0 39.2543 48.9181 31.6303 0 0 0
115 1 3 0 39.8983 50.2287 31.9035 0 0 0
118 1 5 0 40.8609 49.4118 33.6713 0 0 0
117 1 1 0 40.8029 50.1621 31.2576 0 0 0
107 1 8 0 37.909 49.7554 30.1408 0 0 0
102 1 4 0 37.4789 47.5753 30.432 0 0 0
108 1 3 0 38.4249 48.7741 30.3276 0 0 0
614 1 1 0 38.6573 46.6358 36.3276 0 0 0
613 1 4 0 40.2946 45.6432 35.5376 0 0 0
611 1 8 0 39.3516 47.5644 35.0471 0 0 0
113 1 7 0 40.0762 47.4026 32.3474 0 0 0
104 1 5 0 38.042 46.6728 30.4124 0 0 0
612 1 3 0 39.5932 46.8871 35.9105 0 0 0
615 1 5 0 41.3642 45.9612 35.3849 0 0 0
114 1 8 0 39.2572 51.1137 31.5961 0 0 0
2007 3 7 0 35.6666 49.8629 31.2944 0 0 0
103 1 1 0 36.6185 48.7883 59.6793 0 0 -1
2305 4 3 0 46.1109 45.7586 34.9734 0 0 0
2304 4 8 0 46.5784 46.7552 34.9465 0 0 0
2300 4 1 0 46.1258 46.4362 31.9208 0 0 0
2298 4 3 0 45.2684 46.3726 32.6115 0 0 0
2287 4 5 0 42.7788 48.5434 30.8833 0 0 0
2292 4 4 0 43.8741 46.1308 31.8677 0 0 0
2295 4 9 0 42.8308 46.6614 32.5927 0 0 0
136 1 3 0 46.1525 50.487 33.952 0 0 0
138 1 1 0 45.8116 49.5469 33.5845 0 0 0
135 1 8 0 46.5845 50.8849 33.0479 0 0 0
131 1 1 0 43.72 49.7303 33.7728 0 0 0
2297 4 8 0 45.3276 47.2938 33.1397 0 0 0
137 1 4 0 47.2277 50.3443 35.0081 0 0 0
2296 4 7 0 43.1887 47.145 33.3243 0 0 0
2291 4 3 0 43.924 46.7728 30.4761 0 0 0
2290 4 8 0 44.7754 46.4229 29.8795 0 0 0
139 1 5 0 46.6472 50.0788 35.849 0 0 0
145 1 1 0 47.6869 48.5191 34.3165 0 0 0
2285 4 4 0 43.7371 48.2998 30.4227 0 0 0
2293 4 1 0 43.1675 46.2519 29.8139 0 0 0
2289 4 7 0 45.2277 49.5139 30.5593 0 0 0
2288 4 9 0 44.7486 48.9629 31.1988 0 0 0
129 1 3 0 43.7137 50.8515 33.7452 0 0 0
128 1 8 0 43.656 51.2001 32.763 0 0 0
130 1 4 0 44.9855 51.3629 34.3911 0 0 0
132 1 5 0 44.7775 51.327 35.4784 0 0 0
2308 4 5 0 44.0736 45.3717 35.4151 0 0 0
2309 4 9 0 44.497 47.22 35.9763 0 0 0
2794 4 8 0 46.9341 50.64 30.8235 0 0 1
2818 1 12 0 52.3014 45.2682 32.9048 0 0 0
2816 1 12 0 50.3387 45.8177 30.8235 0 0 0
142 1 8 0 48.7213 49.604 33.4939 0 0 0
143 1 3 0 48.2725 49.3568 34.5017 0 0 0
2811 1 11 0 50.5347 45.5983 31.8376 0 0 0
2819 1 12 0 52.0057 46.9107 32.1613 0 0 0
2814 1 11 0 52.012 45.8746 32.0128 0 0 0
2815 1 12 0 49.794 46.3537 32.3001 0 0 0
1234 2 9 0 52.9602 51.2735 32.6946 0 0 0
144 1 4 0 49.3614 48.9518 35.488 0 0 0
149 1 8 0 49.9562 46.8937 35.2225 0 0 0
150 1 3 0 49.4133 47.4668 35.983 0 0 0
147 1 9 0 50.5827 49.1928 34.848 0 0 0
1235 2 7 0 52.1472 51.5041 33.1421 0 0 0
28 1 9 0 53.6994 50.2893 36.137 -1 0 0
1231 2 4 0 52.8045 51.5857 31.3601 0 0 0
146 1 5 0 49.3657 49.6754 36.3464 0 0 0
148 1 7 0 51.2952 49.1276 35.4913 0 0 0
1233 2 5 0 51.8492 51.1614 30.9909 0 0 0
2792 4 9 0 48.7051 48.8171 30.5185 0 0 1
2791 4 5 0 49.4646 50.739 30.4838 0 0 1
1213 2 14 0 53.7287 47.3752 34.7175 0 0 0
29 1 7 0 53.496 49.4847 36.6214 -1 0 0
2793 4 7 0 49.5627 48.6207 30.8797 0 0 1
1226 2 5 0 53.3633 49.1315 31.4989 0 0 0
1215 2 8 0 57.0198 47.6141 33.8773 0 0 0
1220 2 14 0 56.4658 47.4326 31.4072 0 0 0
1216 2 3 0 56.0197 47.9593 33.8294 0 0 0
1224 2 4 0 54.2118 49.5562 30.9056 0 0 0
1219 2 5 0 54.5276 47.6693 32.1076 0 0 0
1223 2 3 0 55.435 49.4742 31.7812 0 0 0
1225 2 1 0 55.182 50.1707 32.6238 0 0 0
1217 2 4 0 55.562 48.1011 32.3029 0 0 0
1222 2 8 0 56.3131 49.8465 31.203 0 0 0
1218 2 1 0 56.072 48.9094 34.3477 0 0 0
1210 2 4 0 55.1245 47.0063 34.6702 0 0 0
1227 2 9 0 54.3542 48.8308 60.3358 0 0 -1
1230 2 3 0 53.9748 51.0494 30.5723 0 0 0
1232 2 1 0 54.9162 51.6667 30.7749 0 0 0
1228 2 7 0 53.5346 48.8783 59.8657 0 0 -1
1229 2 8 0 53.8691 51.0969 60.0656 0 0 -1
2169 4 9 0 59.9358 49.5046 35.3184 -1 0 0
2159 4 4 0 59.7781 46.4001 35.6789 -1 0 0
2161 4 5 0 59.7261 46.7222 34.6319 -1 0 0
2170 4 7 0 29.8806 50.2627 35.3587 0 0 0
2204 4 9 0 34.7265 55.3682 34.5693 0 0 0
2199 4 8 0 32.0293 55 33.9838 0 0 0
2211 4 9 0 35.0287 27.1875 31.3012 0 1 0
2200 4 3 0 32.429 55.6768 34.8024 0 0 0
2201 4 4 0 33.7557 56.3785 34.4392 0 0 0
2208 4 4 0 34.9859 56.7617 32.1677 0 0 0
2206 4 8 0 33.3691 27.1881 32.974 0 1 0
2001 3 8 0 32.9339 50.9359 32.0238 0 0 0
2207 4 3 0 33.6927 56.8002 32.9829 0 0 0
2209 4 1 0 32.8962 56.321 32.3878 0 0 0
55 1 5 0 29.9964 52.1816 30.7333 0 0 0
2009 3 3 0 34.6733 51.3235 33.9524 0 0 0
49 1 9 0 30.1748 52.6548 34.4751 0 0 0
50 1 7 0 30.098 51.7077 34.6876 0 0 0
2216 4 1 0 35.0614 54.5856 32.19 0 0 0
53 1 4 0 29.7909 53.2439 30.8697 0 0 0
51 1 8 0 31.145 53.7914 32.396 0 0 0
2011 3 1 0 34.5289 52.3441 33.5202 0 0 0
2214 4 3 0 35.1165 55.4328 31.4479 0 0 0
2213 4 8 0 34.2019 55.2414 30.8471 0 0 0
52 1 3 0 30.0125 53.7372 32.3251 0 0 0
54 1 1 0 60.3368 54.8031 32.4531 -1 0 0
2220 4 8 0 35.3507 53.5004 29.9221 0 0 0
62 1 5 0 32.1368 52.6859 30.2545 0 0 0
58 1 8 0 30.9044 55.0058 30.48 0 0 0
116 1 4 0 40.3227 50.3129 33.3779 0 0 0
119 1 9 0 39.2889 50.628 34.2007 0 0 0
125 1 5 0 41.986 50.4385 35.0897 0 0 0
2210 4 5 0 35.7927 56.8218 32.9402 0 0 0
2010 3 4 0 36.0069 51.3936 34.7767 0 0 0
2215 4 4 0 36.3079 55.2618 30.534 0 0 0
2013 3 9 0 36.4378 50.1071 35.2325 0 0 0
120 1 7 0 38.9372 49.7783 34.4883 0 0 0
2006 3 9 0 35.6874 50.6232 31.9033 0 0 0
698 1 1 0 42.4249 56.6467 30.4272 0 -1 0
2012 3 5 0 36.7345 51.8465 34.0891 0 0 0
122 1 3 0 41.2525 51.5461 33.4858 0 0 0
121 1 8 0 40.6697 52.3392 34.056 0 0 0
2219 4 7 0 37.0117 55.3577 32.1511 0 0 0
2218 4 9 0 37.3879 55.633 31.3105 0 0 0
2223 4 1 0 36.9351 53.0178 30.5634 0 0 0
697 1 4 0 42.3802 54.4965 30.3564 0 -1 0
701 1 6 0 42.7478 53.5557 30.7993 0 -1 0
685 1 5 0 43.5565 56.6114 34.7027 0 -1 0
2221 4 3 0 36.4291 53.8188 29.9628 0 0 0
695 1 8 0 44.0111 56.0376 30.1865 0 -1 0
696 1 3 0 43.0658 55.8068 30.7498 0 -1 0
692 1 5 0 42.9184 54.9988 32.7363 0 -1 0
690 1 4 0 43.4714 55.8063 32.2425 0 -1 0
689 1 3 0 43.0178 57.1196 32.7932 0 -1 0
2217 4 5 0 36.2555 56.0787 29.7367 0 0 0
124 1 1 0 41.5056 51.9098 32.5577 0 0 0
123 1 4 0 42.4102 51.2271 34.3985 0 0 0
2800 4 7 0 47.7818 53.8247 31.2969 0 0 1
140 1 9 0 47.8883 51.5814 35.1841 0 0 0
134 1 7 0 45.0871 53.2383 34.8813 0 0 0
683 1 4 0 43.6171 26.9188 34.1344 0 0 0
126 1 14 0 42.6414 52.353 35.1926 0 0 0
133 1 9 0 45.209 52.7087 34.102 0 0 0
694 1 7 0 45.2425 56.3491 32.6409 0 -1 0
693 1 9 0 44.8141 55.5198 32.3384 0 -1 0
1257 2 8 0 46.7239 56.6313 35.3627 0 0 0
686 1 9 0 44.9793 27.342 34.0037 0 0 0
1255 2 9 0 47.6546 55.6532 33.0969 0 0 0
687 1 7 0 45.0557 28.0805 33.4012 0 0 0
1258 2 3 0 47.3724 55.8225 35.6771 0 0 0
1254 2 5 0 47.3139 54.0573 34.4072 0 0 0
2799 4 9 0 47.3096 53.019 31.0542 0 0 1
1262 2 14 0 45.3291 54.8546 36.2305 0 0 0
2796 4 4 0 47.8093 52.4468 29.8422 0 0 1
1252 2 4 0 47.8801 55.0532 34.4051 0 0 0
2807 4 6 0 46.1467 54.6708 29.7453 0 0 1
1 1 8 0 53.0913 56.4223 36.2959 -1 0 0
141 1 7 0 47.5664 52.2164 34.5601 0 0 0
1256 2 7 0 46.8018 56.1216 33.0798 0 0 0
2808 4 7 0 48.5235 54.5142 29.9553 0 0 1
2806 4 9 0 48.0921 55.1997 60.0133 0 0 0
1260 2 1 0 48.1937 56.2971 36.1516 0 0 0
1249 2 7 0 50.7252 52.9355 35.0948 0 0 0
1248 2 9 0 50.3993 52.674 34.2132 0 0 0
1240 2 5 0 50.5953 52.6809 31.5007 0 0 0
1247 2 5 0 49.0283 53.4034 32.9562 0 0 0
1238 2 4 0 51.2717 53.5156 31.5346 0 0 0
1246 2 1 0 51.8671 54.66 33.2606 0 0 0
1253 2 1 0 49.3947 54.3333 35.6628 0 0 0
1250 2 8 0 49.9803 55.6543 34.6372 0 0 0
1245 2 4 0 49.8643 53.7862 33.5623 0 0 0
1251 2 3 0 49.3343 54.7514 34.6652 0 0 0
1243 2 8 0 50.5891 55.3338 32.2887 0 0 0
1244 2 3 0 50.9925 54.3874 32.7118 0 0 0
1237 2 3 0 52.7032 53.122 31.3331 0 0 0
1239 2 1 0 53.4066 53.603 32.0177 0 0 0
1236 2 8 0 52.9388 53.3934 30.2968 0 0 0
1241 2 9 0 50.8492 54.3575 30.4873 0 0 0
1242 2 7 0 50.3967 55.0024 31.0364 0 0 0
33 1 1 0 53.875 52.8177 35.6354 -1 0 0
1738 3 1 0 53.7203 57.2694 31.6847 0 -1 0
57 1 7 0 58.9933 54.3629 30.4163 -1 0 0
1745 3 1 0 54.9113 56.155 30.3598 0 -1 0
1743 3 3 0 55.2652 56.9608 29.7306 0 -1 0
1742 3 8 0 55.3655 56.6057 59.3663 0 -1 -1
34 1 5 0 56.3069 51.1586 35.6119 -1 0 0
41 1 5 0 58.1069 51.4878 34.2037 -1 0 0
46 1 4 0 60.0012 52.7709 33.3419 -1 0 0
56 1 9 0 59.0773 53.4385 30.6083 -1 0 0
48 1 5 0 59.8209 51.7334 33.0315 -1 0 0
1744 3 4 0 56.7541 57.2204 30.0751 0 -1 0
1754 3 9 0 58.7386 56.9022 32.9523 0 -1 0
1750 3 3 0 56.7869 57.07 31.6198 0 -1 0
1749 3 8 0 57.1051 56.0377 31.9136 0 -1 0
45 1 3 0 58.7758 53.4484 33.8349 -1 0 0
39 1 4 0 57.6365 52.3822 33.7984 -1 0 0
47 1 1 0 58.4297 54.3175 33.2042 -1 0 0
42 1 9 0 57.2597 52.1265 32.4234 -1 0 0
43 1 7 0 56.3257 52.4018 32.302 -1 0 0
44 1 8 0 58.9516 53.7256 34.8761 -1 0 0
1747 3 9 0 57.6015 56.2153 60.1297 0 -1 -1
38 1 3 0 56.3349 52.8689 34.4554 -1 0 0
40 1 1 0 55.4854 52.4599 33.8743 -1 0 0
1748 3 7 0 58.424 56.2369 29.968 0 -1 0
37 1 8 0 56.3689 53.9888 34.5338 -1 0 0
1354 2 7 0 57.5912 53.595 59.9525 0 0 0
2196 4 5 0 31.6208 26.8667 35.8147 0 1 0
2114 4 7 0 32.9935 29.7627 40.2233 0 0 0
977 2 8 0 34.5775 28.9686 36.0448 0 0 1
2041 3 14 0 35.3537 56.274 41.6952 0 0 0
2040 3 5 0 35.9274 27.5386 41.0171 0 1 0
2038 3 4 0 35.0139 26.9089 41.0134 0 1 0
2037 3 3 0 34.5419 57.1359 39.6819 0 0 0
2113 4 9 0 32.4782 30.5578 40.2721 0 0 0
2039 3 1 0 34.015 27.3553 39.215 0 1 0
2047 3 5 0 32.1011 26.877 41.0992 0 1 0
2108 4 3 0 31.8827 29.4065 38.3363 0 0 0
2107 4 8 0 31.1867 29.502 37.5007 0 0 0
2110 4 1 0 32.8253 29.0667 37.8575 0 0 0
2031 3 4 0 35.6427 56.8039 38.7948 0 0 0
2034 3 9 0 35.5649 26.9211 37.6142 0 1 0
2109 4 4 0 31.9158 30.8017 38.9874 0 0 0
2115 4 8 0 30.5968 32.2491 39.9071 0 0 0
2116 4 3 0 30.6425 31.5902 39.0601 0 0 0
2118 4 1 0 60.3424 30.9982 39.1837 -1 0 0
976 2 7 0 37.2169 28.5658 36.6596 0 0 1
2112 4 5 0 32.7253 31.2826 38.4324 0 0 0
2119 4 5 0 31.651 32.3111 37.3065 0 0 0
2117 4 4 0 30.6822 32.5051 37.8122 0 0 0
421 1 7 0 36.7573 30.3029 39.4568 0 0 0
2033 3 5 0 36.6173 57.0384 39.2212 0 0 0
420 1 9 0 35.8961 30.3449 39.9077 0 0 0
677 1 1 0 40.608 29.3591 35.7978 0 0 0
975 2 9 0 36.5488 29.2512 36.7083 0 0 1
672 1 9 0 39.3691 28.3037 37.6232 0 0 0
669 1 4 0 40.6545 28.7913 37.9071 0 0 0
665 1 9 0 38.5358 30.8969 37.9313 0 0 0
662 1 4 0 39.9498 31.1596 38.0816 0 0 0
666 1 7 0 38.5102 30.2059 37.2471 0 0 0
664 1 5 0 40.3962 31.3508 37.0766 0 0 0
667 1 8 0 40.2871 29.7758 39.6996 0 0 0
668 1 3 0 40.67 30.0109 38.7175 0 0 0
673 1 7 0 39.448 27.393 37.3724 0 0 0
675 1 3 0 41.3645 28.9816 36.5301 0 0 0
671 1 5 0 41.3032 28.0598 38.3658 0 0 0
670 1 1 0 41.6692 30.3636 38.9631 0 0 0
663 1 1 0 40.3094 32.1961 39.9209 0 0 0
661 1 3 0 39.926 32.3915 38.8958 0 0 0
417 1 4 0 35.7979 31.6538 40.544 0 0 0
660 1 8 0 38.8656 32.7905 38.9521 0 0 0
676 1 4 0 42.0126 27.6807 36.0334 0 0 0
419 1 5 0 36.8145 32.1222 40.3954 0 0 0
678 1 5 0 41.3197 57.4425 35.8808 0 -1 0
1920 3 1 0 43.6127 33.4614 36.146 0 0 0
1711 3 5 0 48.1935 30.4159 37.0832 0 0 0
674 1 8 0 42.0824 29.7531 36.6143 0 0 0
1697 3 5 0 44.4404 31.6947 40.1601 0 0 0
1705 3 9 0 44.9603 31.0376 37.5052 0 0 0
1706 3 7 0 44.1387 30.5806 37.6071 0 0 0
1702 3 4 0 45.9653 30.2403 38.2366 0 0 0
1701 3 3 0 45.2178 29.6851 39.4283 0 0 0
1704 3 5 0 46.8636 30.8611 38.5371 0 0 0
1708 3 3 0 46.5642 29.0903 37.4749 0 0 0
1707 3 8 0 45.9186 28.6789 36.7043 0 0 0
1709 3 4 0 47.867 29.4188 36.782 0 0 0
1703 3 1 0 45.7186 28.8505 39.9397 0 0 0
1700 3 8 0 44.1872 29.3334 38.9982 0 0 0
1695 3 4 0 44.9767 30.7734 40.4639 0 0 0
1710 3 1 0 46.6397 28.1624 38.1368 0 0 0
1698 3 14 0 46.1969 31.1226 41.0868 0 0 0
2917 8 12 0 48.3093 27.3029 42.4793 3 5 8
1712 3 14 0 48.862 28.4921 37.2111 0 0 0
1783 3 7 0 51.1853 31.8563 37.0578 0 0 0
1779 3 4 0 52.7237 30.8536 37.5433 0 0 0
1781 3 5 0 52.6807 30.0789 38.2617 0 0 0
1782 3 9 0 51.5683 31.0477 36.7414 0 0 0
1785 3 3 0 53.0365 32.1431 38.3966 0 0 0
1788 3 5 0 51.1277 31.8068 39.2142 0 0 0
2926 8 12 0 49.1622 27.6129 40.0298 3 5 8
2914 8 16 0 49.2866 28.4362 40.7941 3 5 8
1787 3 1 0 53.8965 31.981 39.0627 0 0 0
1796 3 14 0 52.9396 30.8154 41.2132 0 0 0
1793 3 4 0 52.2102 31.8698 41.7067 0 0 0
2915 8 11 0 49.0646 28.1457 42.2558 3 5 8
1795 3 5 0 51.1301 31.5707 41.8829 0 0 0
1777 3 8 0 53.7104 29.6738 36.0173 0 0 0
1778 3 3 0 53.9357 30.5443 36.5849 0 0 0
1780 3 1 0 53.9052 31.3277 35.8174 0 0 0
7 1 14 0 52.0345 27.0719 39.1651 -1 1 0
1775 3 14 0 55.3245 29.6869 38.4482 0 0 0
6 1 5 0 51.353 27.4176 37.1848 -1 1 0
1767 3 5 0 57.8918 31.0933 35.7592 0 0 0
1764 3 3 0 58.4267 29.0977 35.2159 0 0 0
1763 3 8 0 59.5322 29.0894 35.3912 0 0 0
1766 3 1 0 58.287 28.0138 35.4571 0 0 0
1769 3 7 0 59.0089 29.289 37.5623 0 0 0
2111 4 2 0 31.5569 28.6567 39.0659 0 0 0
1772 3 4 0 55.3275 30.3819 37.231 0 0 0
1773 3 1 0 55.9861 29.6346 35.2226 0 0 0
1770 3 8 0 56.0821 28.5528 36.5829 0 0 0
1774 3 5 0 55.7136 31.4113 37.3083 0 0 0
1771 3 3 0 56.267 29.6024 36.3039 0 0 0
1164 2 9 0 56.8986 31.05 40.439 0 0 0
1768 3 9 0 58.4091 30.0704 37.4727 0 0 0
1765 3 4 0 57.7665 30.0517 36.192 0 0 0