units			real
dimension		3
processors		* * *
boundary		p p p
atom_style		full
pair_style		lj/cut 10.0
bond_style		harmonic
angle_style 	harmonic
read_data		crosslinked.data
Reading data file ...
  orthogonal box = (29.738884 26.824384 29.707886) to (60.368116 57.453616 60.337118)
  1 by 1 by 1 MPI processor grid
  reading atoms ...
  2997 atoms
  scanning bonds ...
  4 = max bonds/atom
  scanning angles ...
  6 = max angles/atom
  reading bonds ...
  3050 bonds
  reading angles ...
  5803 angles
Finding 1-2 1-3 1-4 neighbors ...
  special bond factors lj:    0        0        0       
  special bond factors coul:  0        0        0       
     4 = max # of 1-2 neighbors
     7 = max # of 1-3 neighbors
    16 = max # of 1-4 neighbors
    20 = max # of special neighbors
  special bonds CPU = 0.009 seconds
  read_data CPU = 0.082 seconds

#output

thermo			100
thermo_style	custom step temp density


#intial minimization
minimize		1.0e-5 1.0e-5 10000 10000
WARNING: Using 'neigh_modify every 1 delay 0 check yes' setting during minimization (src/min.cpp:187)
Generated 153 of 153 mixed pair_coeff terms from geometric mixing rule
Neighbor list info ...
  update every 1 steps, delay 0 steps, check yes
  max neighbors/atom: 2000, page size: 100000
  master list distance cutoff = 12
  ghost atom cutoff = 12
  binsize = 6, bins = 6 6 6
  1 neighbor lists, perpetual/occasional/extra = 1 0 0
  (1) pair lj/cut, perpetual
      attributes: half, newton on
      pair build: half/bin/newton
      stencil: half/bin/3d
      bin: standard
WARNING: Inconsistent image flags (src/domain.cpp:819)
Per MPI rank memory allocation (min/avg/max) = 25.06 | 25.06 | 25.06 Mbytes
   Step          Temp         Density    
         0   0              1.0959479    
       100   0              1.0959479    
       200   0              1.0959479    
       300   0              1.0959479    
       400   0              1.0959479    
       500   0              1.0959479    
       600   0              1.0959479    
       700   0              1.0959479    
       800   0              1.0959479    
       900   0              1.0959479    
      1000   0              1.0959479    
      1100   0              1.0959479    
      1200   0              1.0959479    
      1300   0              1.0959479    
      1400   0              1.0959479    
      1500   0              1.0959479    
      1600   0              1.0959479    
      1700   0              1.0959479    
      1800   0              1.0959479    
      1899   0              1.0959479    
Loop time of 107.32 on 1 procs for 1899 steps with 2997 atoms

99.0% CPU use with 1 MPI tasks x 1 OpenMP threads

Minimization stats:
  Stopping criterion = energy tolerance
  Energy initial, next-to-last, final = 
      252815.890135124  -1118.40792874212   -1118.4155198419
  Force two-norm initial, final = 28782.963 4.3459271
  Force max component initial, final = 4144.4888 1.03182
  Final line search alpha, max atom move = 0.027411232 0.028283457
  Iterations, force evaluations = 1899 3703

MPI task timing breakdown:
Section |  min time  |  avg time  |  max time  |%varavg| %total
---------------------------------------------------------------
Pair    | 102.11     | 102.11     | 102.11     |   0.0 | 95.14
Bond    | 2.1702     | 2.1702     | 2.1702     |   0.0 |  2.02
Neigh   | 2.2465     | 2.2465     | 2.2465     |   0.0 |  2.09
Comm    | 0.44567    | 0.44567    | 0.44567    |   0.0 |  0.42
Output  | 0.010518   | 0.010518   | 0.010518   |   0.0 |  0.01
Modify  | 0          | 0          | 0          |   0.0 |  0.00
Other   |            | 0.3376     |            |       |  0.31

Nlocal:           2997 ave        2997 max        2997 min
Histogram: 1 0 0 0 0 0 0 0 0 0
Nghost:          13873 ave       13873 max       13873 min
Histogram: 1 0 0 0 0 0 0 0 0 0
Neighs:     1.1189e+06 ave  1.1189e+06 max  1.1189e+06 min
Histogram: 1 0 0 0 0 0 0 0 0 0

Total # of neighbors = 1118903
Ave neighs/atom = 373.34101
Ave special neighs/atom = 12.124124
Neighbor list builds = 51
Dangerous builds = 0

timestep 1
# nvt for 500 ps
fix			1 all nvt temp 300 300 100
run			500000
Generated 153 of 153 mixed pair_coeff terms from geometric mixing rule
WARNING: Inconsistent image flags (src/domain.cpp:819)
Per MPI rank memory allocation (min/avg/max) = 22.81 | 22.81 | 22.81 Mbytes
   Step          Temp         Density    
      1899   0              1.0959479    
      1900   0.00016544689  1.0959479    
      2000   0.12382739     1.0959479    
      2100   0.19835339     1.0959479    
      2200   0.25838636     1.0959479    
      2300   0.32799176     1.0959479    
      2400   0.44954392     1.0959479    
      2500   0.61758745     1.0959479    
      2600   0.83494181     1.0959479    
      2700   1.1712245      1.0959479    
      2800   1.6438958      1.0959479    
      2900   2.2965008      1.0959479    
      3000   3.0899265      1.0959479    
      3100   4.3141704      1.0959479    
      3200   6.1536514      1.0959479    
      3300   8.8154678      1.0959479    
      3400   12.913214      1.0959479    
      3500   18.252732      1.0959479    
      3600   26.47433       1.0959479    
      3700   38.124564      1.0959479    
      3800   55.369142      1.0959479    
      3900   78.685022      1.0959479    
      4000   109.64805      1.0959479    
      4100   149.16557      1.0959479    
      4200   191.67153      1.0959479    
      4300   262.0286       1.0959479    
      4400   288.67678      1.0959479    
      4500   324.34688      1.0959479    
      4600   323.86017      1.0959479    
      4700   312.44446      1.0959479    
      4800   284.21221      1.0959479    
      4900   282.15483      1.0959479    
      5000   285.99317      1.0959479    
      5100   308.87961      1.0959479    
      5200   311.84642      1.0959479    
      5300   309.57888      1.0959479    
      5400   280.34092      1.0959479    
      5500   295.26095      1.0959479    
      5600   300.77333      1.0959479    
      5700   308.13701      1.0959479    
      5800   309.80023      1.0959479    
      5900   300.77648      1.0959479    
      6000   289.16626      1.0959479    
      6100   289.0243       1.0959479    
      6200   305.41268      1.0959479    
      6300   305.93739      1.0959479    
      6400   301.07979      1.0959479    
      6500   306.1825       1.0959479    
      6600   292.09424      1.0959479    
      6700   298.35157      1.0959479    
      6800   298.88943      1.0959479    
      6900   308.41603      1.0959479    
      7000   298.07849      1.0959479    
      7100   296.87515      1.0959479    
      7200   292.10962      1.0959479    
      7300   299.99632      1.0959479    
      7400   311.27318      1.0959479    
      7500   302.26433      1.0959479    
      7600   294.32376      1.0959479    
      7700   295.73816      1.0959479    
      7800   297.63826      1.0959479    
      7900   307.48063      1.0959479    
      8000   302.81733      1.0959479    
      8100   300.23855      1.0959479    
      8200   293.49892      1.0959479    
      8300   296.11755      1.0959479    
      8400   305.1456       1.0959479    
      8500   309.68345      1.0959479    
      8600   306.36829      1.0959479    
      8700   299.19831      1.0959479    
      8800   299.36674      1.0959479    
      8900   302.06317      1.0959479    
      9000   306.16639      1.0959479    
      9100   295.74471      1.0959479    
      9200   303.31442      1.0959479    
      9300   295.71638      1.0959479    
      9400   295.76684      1.0959479    
      9500   300.27163      1.0959479    
      9600   294.30677      1.0959479    
      9700   299.79441      1.0959479    
      9800   301.47299      1.0959479    
      9900   293.52281      1.0959479    
     10000   296.01811      1.0959479    
     10100   301.8023       1.0959479    
     10200   296.71731      1.0959479    
     10300   300.78882      1.0959479    
     10400   302.22909      1.0959479    
     10500   299.1662       1.0959479    
     10600   305.7617       1.0959479    
     10700   302.38764      1.0959479    
     10800   305.1414       1.0959479    
     10900   300.64232      1.0959479    
     11000   297.9103       1.0959479    
     11100   299.49627      1.0959479    
     11200   299.57309      1.0959479    
     11300   311.97636      1.0959479    
     11400   301.74348      1.0959479    
     11500   297.35613      1.0959479    
     11600   296.97469      1.0959479    
     11700   295.9798       1.0959479    
     11800   297.31615      1.0959479    
     11900   305.61511      1.0959479    
     12000   302.99256      1.0959479    
     12100   296.06236      1.0959479    
     12200   290.00457      1.0959479    
     12300   294.21433      1.0959479    
     12400   305.17386      1.0959479    
     12500   305.09352      1.0959479    
     12600   303.55764      1.0959479    
     12700   292.36592      1.0959479    
     12800   295.88422      1.0959479    
     12900   297.64004      1.0959479    
     13000   301.51401      1.0959479    
     13100   305.42073      1.0959479    
     13200   304.21925      1.0959479    
     13300   300.70795      1.0959479    
     13400   297.29914      1.0959479    
     13500   303.50241      1.0959479    
     13600   301.07186      1.0959479    
     13700   298.48704      1.0959479    
     13800   299.39515      1.0959479    
     13900   299.47896      1.0959479    
     14000   301.72358      1.0959479    
     14100   297.73619      1.0959479    
     14200   299.19525      1.0959479    
     14300   299.46453      1.0959479    
     14400   301.11103      1.0959479    
     14500   301.30859      1.0959479    
     14600   299.56789      1.0959479    
     14700   299.64136      1.0959479    
     14800   298.33067      1.0959479    
     14900   298.6008       1.0959479    
     15000   299.50395      1.0959479    
     15100   299.89432      1.0959479    
     15200   299.96919      1.0959479    
     15300   297.64598      1.0959479    
     15400   295.94938      1.0959479    
     15500   306.51583      1.0959479    
     15600   299.26295      1.0959479    
     15700   298.95002      1.0959479    
     15800   298.85577      1.0959479    
     15900   301.47599      1.0959479    
     16000   303.85773      1.0959479    
     16100   293.02329      1.0959479    
     16200   303.36465      1.0959479    
     16300   295.80263      1.0959479    
     16400   306.23938      1.0959479    
     16500   298.45027      1.0959479    
     16600   302.10417      1.0959479    
     16700   296.22986      1.0959479    
     16800   301.75706      1.0959479    
     16900   301.1851       1.0959479    
     17000   302.02141      1.0959479    
     17100   293.03097      1.0959479    
     17200   304.26246      1.0959479    
     17300   304.23094      1.0959479    
     17400   302.92389      1.0959479    
     17500   296.7485       1.0959479    
     17600   297.63524      1.0959479    
     17700   295.57599      1.0959479    
     17800   292.42968      1.0959479    
     17900   301.91884      1.0959479    
     18000   303.95674      1.0959479    
     18100   303.71365      1.0959479    
     18200   292.72931      1.0959479    
     18300   303.25348      1.0959479    
     18400   298.47465      1.0959479    
     18500   304.3324       1.0959479    
     18600   302.37595      1.0959479    
     18700   300.68191      1.0959479    
     18800   299.42863      1.0959479    
     18900   298.71735      1.0959479    
     19000   299.96307      1.0959479    
     19100   302.15939      1.0959479    
     19200   305.50779      1.0959479    
     19300   297.06289      1.0959479    
     19400   303.34563      1.0959479    
     19500   296.14812      1.0959479    
     19600   298.65381      1.0959479    
     19700   302.12129      1.0959479    
     19800   298.3176       1.0959479    
     19900   300.97385      1.0959479    
     20000   299.82935      1.0959479    
     20100   295.85607      1.0959479    
     20200   302.79569      1.0959479    
     20300   303.04136      1.0959479    
     20400   303.99667      1.0959479    
     20500   305.62068      1.0959479    
     20600   301.62346      1.0959479    
     20700   298.10651      1.0959479    
     20800   298.32581      1.0959479    
     20900   306.38981      1.0959479    
     21000   305.11908      1.0959479    
     21100   303.88205      1.0959479    
     21200   299.76756      1.0959479    
     21300   297.18494      1.0959479    
     21400   297.19259      1.0959479    
     21500   299.71241      1.0959479    
     21600   304.37174      1.0959479    
     21700   301.11094      1.0959479    
     21800   298.68534      1.0959479    
     21900   294.27308      1.0959479    
     22000   298.51344      1.0959479    
     22100   304.1757       1.0959479    
     22200   301.84281      1.0959479    
     22300   303.63731      1.0959479    
     22400   291.69049      1.0959479    
     22500   294.73733      1.0959479    
     22600   303.65778      1.0959479    
     22700   296.6563       1.0959479    
     22800   307.40958      1.0959479    
     22900   304.2844       1.0959479    
     23000   302.87567      1.0959479    
     23100   293.65309      1.0959479    
     23200   293.68086      1.0959479    
     23300   298.21313      1.0959479    
     23400   308.45574      1.0959479    
     23500   297.15036      1.0959479    
     23600   305.26092      1.0959479    
     23700   299.38129      1.0959479    
     23800   295.3278       1.0959479    
     23900   303.1604       1.0959479    
     24000   297.74287      1.0959479    
     24100   308.68356      1.0959479    
     24200   303.66731      1.0959479    
     24300   306.82644      1.0959479    
     24400   295.76876      1.0959479    
     24500   292.38436      1.0959479    
     24600   295.24954      1.0959479    
     24700   300.43826      1.0959479    
     24800   300.00426      1.0959479    
     24900   305.01835      1.0959479    
     25000   291.48703      1.0959479    
     25100   298.83343      1.0959479    
     25200   297.63058      1.0959479    
     25300   302.99474      1.0959479    
     25400   301.71786      1.0959479    
     25500   303.35434      1.0959479    
     25600   299.42786      1.0959479    
     25700   294.34079      1.0959479    
     25800   298.09117      1.0959479    
     25900   300.19938      1.0959479    
     26000   304.11461      1.0959479    
     26100   304.13912      1.0959479    
     26200   295.09308      1.0959479    
     26300   299.21         1.0959479    
     26400   302.63022      1.0959479    
     26500   299.68271      1.0959479    
     26600   304.03212      1.0959479    
     26700   302.50049      1.0959479    
     26800   301.37043      1.0959479    
     26900   296.4327       1.0959479    
     27000   298.45281      1.0959479    
     27100   293.52965      1.0959479    
     27200   304.87304      1.0959479    
     27300   307.89271      1.0959479    
     27400   301.53269      1.0959479    
     27500   295.88229      1.0959479    
     27600   294.24077      1.0959479    
     27700   299.17456      1.0959479    
     27800   300.74123      1.0959479    
     27900   309.31926      1.0959479    
     28000   303.34021      1.0959479    
     28100   295.18365      1.0959479    
     28200   295.84193      1.0959479    
     28300   293.69486      1.0959479    
     28400   301.44872      1.0959479    
     28500   301.73497      1.0959479    
     28600   302.26026      1.0959479    
     28700   299.62961      1.0959479    
     28800   291.93424      1.0959479    
     28900   294.9004       1.0959479    
     29000   295.78576      1.0959479    
     29100   307.63613      1.0959479    
     29200   302.24795      1.0959479    
     29300   304.58957      1.0959479    
     29400   295.01361      1.0959479    
     29500   305.42746      1.0959479    
     29600   295.0377       1.0959479    
     29700   300.06902      1.0959479    
     29800   304.07226      1.0959479    
     29900   304.67591      1.0959479    
     30000   294.51392      1.0959479    
     30100   297.58893      1.0959479    
     30200   290.80034      1.0959479    
     30300   302.16244      1.0959479    
     30400   308.48881      1.0959479    
     30500   304.20245      1.0959479    
     30600   296.82663      1.0959479    
     30700   294.76664      1.0959479    
     30800   293.59154      1.0959479    
     30900   301.15837      1.0959479    
     31000   307.38358      1.0959479    
     31100   298.46832      1.0959479    
     31200   300.00435      1.0959479    
     31300   296.78185      1.0959479    
     31400   292.234        1.0959479    
     31500   296.47744      1.0959479    
     31600   308.42196      1.0959479    
     31700   307.49983      1.0959479    
     31800   299.88017      1.0959479    
     31900   298.3418       1.0959479    
     32000   297.15767      1.0959479    
     32100   299.06733      1.0959479    
     32200   302.8863       1.0959479    
     32300   306.06486      1.0959479    
     32400   306.28749      1.0959479    
     32500   304.75209      1.0959479    
     32600   299.48123      1.0959479    
     32700   297.19266      1.0959479    
     32800   299.94657      1.0959479    
     32900   305.17592      1.0959479    
     33000   304.04248      1.0959479    
     33100   303.36584      1.0959479    
     33200   293.46517      1.0959479    
     33300   296.79794      1.0959479    
     33400   300.00459      1.0959479    
     33500   302.384        1.0959479    
     33600   300.6823       1.0959479    
     33700   298.42286      1.0959479    
     33800   299.27056      1.0959479    
     33900   293.52143      1.0959479    
     34000   305.25926      1.0959479    
     34100   308.52403      1.0959479    
     34200   301.36388      1.0959479    
     34300   290.87642      1.0959479    
     34400   293.4935       1.0959479    
     34500   296.13291      1.0959479    
     34600   294.55407      1.0959479    
     34700   314.67451      1.0959479    
     34800   300.38461      1.0959479    
     34900   296.9934       1.0959479    
     35000   301.91695      1.0959479    
     35100   298.01166      1.0959479    
     35200   297.90168      1.0959479    
     35300   302.06421      1.0959479    
     35400   301.59576      1.0959479    
     35500   299.55559      1.0959479    
     35600   293.9462       1.0959479    
     35700   296.57621      1.0959479    
     35800   303.66764      1.0959479    
     35900   300.89641      1.0959479    
     36000   300.2179       1.0959479    
     36100   302.6077       1.0959479    
     36200   293.86963      1.0959479    
     36300   291.85495      1.0959479    
     36400   297.10467      1.0959479    
     36500   304.38352      1.0959479    
     36600   299.61067      1.0959479    
     36700   300.16262      1.0959479    
     36800   300.39446      1.0959479    
     36900   287.95951      1.0959479    
     37000   297.17788      1.0959479    
     37100   300.7509       1.0959479    
     37200   305.34378      1.0959479    
     37300   301.32694      1.0959479    
     37400   295.64118      1.0959479    
     37500   303.09475      1.0959479    
     37600   292.59247      1.0959479    
     37700   288.55399      1.0959479    
     37800   295.2724       1.0959479    
     37900   294.03562      1.0959479    
     38000   306.38205      1.0959479    
     38100   299.74805      1.0959479    
     38200   299.62786      1.0959479    
     38300   302.29641      1.0959479    
     38400   300.36922      1.0959479    
     38500   302.89532      1.0959479    
     38600   301.41377      1.0959479    
     38700   306.81655      1.0959479    
     38800   304.09052      1.0959479    
     38900   306.09648      1.0959479    
     39000   294.86359      1.0959479    
     39100   292.27505      1.0959479    
     39200   298.07801      1.0959479    
     39300   298.09785      1.0959479    
     39400   301.59266      1.0959479    
     39500   308.21654      1.0959479    
     39600   306.81235      1.0959479    
     39700   304.82787      1.0959479    
     39800   304.38213      1.0959479    
     39900   294.5974       1.0959479    
     40000   300.45007      1.0959479    
     40100   301.47869      1.0959479    
     40200   305.22157      1.0959479    
     40300   303.80473      1.0959479    
     40400   302.97008      1.0959479    
     40500   298.46055      1.0959479    
     40600   301.89093      1.0959479    
     40700   292.19822      1.0959479    
     40800   298.90167      1.0959479    
     40900   299.54567      1.0959479    
     41000   303.30147      1.0959479    
     41100   310.55318      1.0959479    
     41200   298.77425      1.0959479    
     41300   297.69037      1.0959479    
     41400   303.1125       1.0959479    
     41500   305.2822       1.0959479    
     41600   303.51359      1.0959479    
     41700   303.99923      1.0959479    
     41800   299.81347      1.0959479    
     41900   300.89921      1.0959479    
     42000   307.78996      1.0959479    
     42100   304.17651      1.0959479    
     42200   300.90819      1.0959479    
     42300   306.24901      1.0959479    
     42400   302.00462      1.0959479    
     42500   298.45259      1.0959479    
     42600   305.7592       1.0959479    
     42700   301.33483      1.0959479    
     42800   305.54771      1.0959479    
     42900   298.38999      1.0959479    
     43000   299.10848      1.0959479    
     43100   298.47494      1.0959479    
     43200   302.0485       1.0959479    
     43300   305.34761      1.0959479    
     43400   299.1996       1.0959479    
     43500   300.17858      1.0959479    
     43600   305.14725      1.0959479    
     43700   296.88787      1.0959479    
     43800   301.35905      1.0959479    
     43900   301.41227      1.0959479    
     44000   305.7519       1.0959479    
     44100   292.41608      1.0959479    
     44200   295.91222      1.0959479    
     44300   299.02748      1.0959479    
     44400   304.31083      1.0959479    
     44500   302.38237      1.0959479    
     44600   305.13015      1.0959479    
     44700   299.65094      1.0959479    
     44800   301.16145      1.0959479    
     44900   303.76781      1.0959479    
     45000   304.58117      1.0959479    
     45100   309.49282      1.0959479    
     45200   307.04135      1.0959479    
     45300   299.43171      1.0959479    
     45400   300.7073       1.0959479    
     45500   297.28403      1.0959479    
     45600   302.74991      1.0959479    
     45700   310.75899      1.0959479    
     45800   298.95933      1.0959479    
     45900   298.99042      1.0959479    
     46000   294.44867      1.0959479    
     46100   303.08727      1.0959479    
     46200   308.39835      1.0959479    
     46300   315.65677      1.0959479    
     46400   313.28785      1.0959479    
     46500   303.12397      1.0959479    
     46600   304.31948      1.0959479    
     46700   295.98059      1.0959479    
     46800   295.08469      1.0959479    
     46900   303.13339      1.0959479    
     47000   304.31243      1.0959479    
     47100   303.30434      1.0959479    
     47200   303.93552      1.0959479    
     47300   293.61914      1.0959479    
     47400   299.57363      1.0959479    
     47500   303.11335      1.0959479    
     47600   305.74305      1.0959479    
     47700   313.69529      1.0959479    
     47800   304.77764      1.0959479    
     47900   303.39252      1.0959479    
     48000   298.50563      1.0959479    
     48100   298.73082      1.0959479    
     48200   302.57504      1.0959479    
     48300   306.51442      1.0959479    
     48400   305.63548      1.0959479    
     48500   299.696        1.0959479    
     48600   299.13517      1.0959479    
     48700   300.81525      1.0959479    
     48800   300.20082      1.0959479    
     48900   305.36517      1.0959479    
     49000   300.47926      1.0959479    
     49100   308.57332      1.0959479    
     49200   295.26084      1.0959479    
     49300   298.81853      1.0959479    
     49400   300.42973      1.0959479    
     49500   302.74214      1.0959479    
     49600   305.39416      1.0959479    
     49700   302.62689      1.0959479    
     49800   303.75754      1.0959479    
     49900   298.8188       1.0959479    
     50000   298.00609      1.0959479    
     50100   299.70953      1.0959479    
     50200   298.29813      1.0959479    
     50300   291.14258      1.0959479    
     50400   297.76339      1.0959479    
     50500   301.68161      1.0959479    
     50600   302.3993       1.0959479    
     50700   299.36406      1.0959479    
     50800   293.0236       1.0959479    
     50900   302.64211      1.0959479    
     51000   305.46947      1.0959479    
     51100   304.57279      1.0959479    
     51200   296.73803      1.0959479    
     51300   294.17966      1.0959479    
     51400   300.52455      1.0959479    
     51500   307.0422       1.0959479    
     51600   302.24663      1.0959479    
     51700   299.76392      1.0959479    
     51800   292.64001      1.0959479    
     51900   295.7835       1.0959479    
     52000   300.87477      1.0959479    
     52100   307.05993      1.0959479    
     52200   307.30845      1.0959479    
     52300   301.9405       1.0959479    
     52400   297.7117       1.0959479    
     52500   301.85322      1.0959479    
     52600   299.33199      1.0959479    
     52700   299.03505      1.0959479    
     52800   299.36067      1.0959479    
     52900   300.27608      1.0959479    
     53000   306.79101      1.0959479    
     53100   296.79778      1.0959479    
     53200   298.25731      1.0959479    
     53300   293.12741      1.0959479    
     53400   303.84929      1.0959479    
     53500   305.72492      1.0959479    
     53600   306.51844      1.0959479    
     53700   301.42134      1.0959479    
     53800   291.33132      1.0959479    
     53900   297.49495      1.0959479    
     54000   302.9749       1.0959479    
     54100   305.6185       1.0959479    
     54200   301.02012      1.0959479    
     54300   295.08484      1.0959479    
     54400   298.00423      1.0959479    
     54500   297.85223      1.0959479    
     54600   304.30318      1.0959479    
     54700   301.04878      1.0959479    
     54800   299.96741      1.0959479    
     54900   300.87427      1.0959479    
     55000   300.17968      1.0959479    
     55100   299.88603      1.0959479    
     55200   295.42873      1.0959479    
     55300   294.84991      1.0959479    
     55400   304.31915      1.0959479    
     55500   306.58558      1.0959479    
     55600   307.33322      1.0959479    
     55700   299.81443      1.0959479    
     55800   292.60553      1.0959479    
     55900   301.95525      1.0959479    
     56000   301.94589      1.0959479    
     56100   300.06747      1.0959479    
     56200   308.00872      1.0959479    
     56300   306.01644      1.0959479    
     56400   297.32754      1.0959479    
     56500   302.24481      1.0959479    
     56600   300.14443      1.0959479    
     56700   296.32886      1.0959479    
     56800   294.33738      1.0959479    
     56900   298.12336      1.0959479    
     57000   301.54523      1.0959479    
     57100   304.63919      1.0959479    
     57200   300.48775      1.0959479    
     57300   301.55039      1.0959479    
     57400   288.56742      1.0959479    
     57500   296.69664      1.0959479    
     57600   308.95857      1.0959479    
     57700   304.68811      1.0959479    
     57800   303.07926      1.0959479    
     57900   299.12018      1.0959479    
     58000   294.90562      1.0959479    
     58100   299.58971      1.0959479    
     58200   298.62536      1.0959479    
     58300   303.66386      1.0959479    
     58400   297.60073      1.0959479    
     58500   295.00602      1.0959479    
     58600   292.43411      1.0959479    
     58700   300.68576      1.0959479    
     58800   304.12897      1.0959479    
     58900   296.27653      1.0959479    
     59000   294.18762      1.0959479    
     59100   299.14855      1.0959479    
     59200   292.94728      1.0959479    
     59300   293.47441      1.0959479    
     59400   296.96002      1.0959479    
     59500   301.92751      1.0959479    
     59600   299.89171      1.0959479    
     59700   295.26313      1.0959479    
     59800   300.19383      1.0959479    
     59900   298.4494       1.0959479    
     60000   303.8618       1.0959479    
     60100   297.89526      1.0959479    
     60200   296.51873      1.0959479    
     60300   297.11204      1.0959479    
     60400   300.10222      1.0959479    
     60500   305.0492       1.0959479    
     60600   305.1143       1.0959479    
     60700   297.77713      1.0959479    
     60800   302.54396      1.0959479    
     60900   290.90995      1.0959479    
     61000   297.66876      1.0959479    
     61100   302.93812      1.0959479    
     61200   304.37733      1.0959479    
     61300   305.3479       1.0959479    
     61400   297.43596      1.0959479    
     61500   293.29458      1.0959479    
     61600   292.73728      1.0959479    
     61700   295.50524      1.0959479    
     61800   303.47752      1.0959479    
     61900   299.60203      1.0959479    
     62000   299.95511      1.0959479    
     62100   298.39605      1.0959479    
     62200   293.34739      1.0959479    
     62300   294.41782      1.0959479    
     62400   296.20852      1.0959479    
     62500   301.01016      1.0959479    
     62600   299.26877      1.0959479    
     62700   300.58345      1.0959479    
     62800   293.63389      1.0959479    
     62900   291.60349      1.0959479    
     63000   300.00124      1.0959479    
     63100   301.66674      1.0959479    
     63200   301.90375      1.0959479    
     63300   298.3193       1.0959479    
     63400   290.2316       1.0959479    
     63500   291.70963      1.0959479    
     63600   296.9999       1.0959479    
     63700   304.44129      1.0959479    
     63800   303.05196      1.0959479    
     63900   299.91654      1.0959479    
     64000   293.60994      1.0959479    
     64100   299.94101      1.0959479    
     64200   306.09525      1.0959479    
     64300   303.8186       1.0959479    
     64400   299.32189      1.0959479    
     64500   302.77889      1.0959479    
     64600   300.25509      1.0959479    
     64700   297.19838      1.0959479    
     64800   299.4378       1.0959479    
     64900   302.66941      1.0959479    
     65000   302.17291      1.0959479    
     65100   300.91704      1.0959479    
     65200   288.8233       1.0959479    
     65300   296.64162      1.0959479    
     65400   303.76244      1.0959479    
     65500   300.83808      1.0959479    
     65600   302.0506       1.0959479    
     65700   298.92604      1.0959479    
     65800   296.09065      1.0959479    
     65900   286.6251       1.0959479    
     66000   301.52241      1.0959479    
     66100   303.43858      1.0959479    
     66200   303.73729      1.0959479    
     66300   305.47919      1.0959479    
     66400   302.11128      1.0959479    
     66500   290.52296      1.0959479    
     66600   296.62095      1.0959479    
     66700   305.54255      1.0959479    
     66800   301.34558      1.0959479    
     66900   304.24198      1.0959479    
     67000   294.83216      1.0959479    
     67100   290.62007      1.0959479    
     67200   299.79005      1.0959479    
     67300   304.06651      1.0959479    
     67400   304.7628       1.0959479    
     67500   296.62199      1.0959479    
     67600   300.05045      1.0959479    
     67700   287.75041      1.0959479    
     67800   297.15023      1.0959479    
     67900   296.84409      1.0959479    
     68000   301.69442      1.0959479    
     68100   302.86403      1.0959479    
     68200   297.41507      1.0959479    
     68300   301.29288      1.0959479    
     68400   296.70941      1.0959479    
     68500   301.24091      1.0959479    
     68600   296.25858      1.0959479    
     68700   300.72936      1.0959479    
     68800   307.69091      1.0959479    
     68900   296.65805      1.0959479    
     69000   298.42151      1.0959479    
     69100   293.44225      1.0959479    
     69200   298.78559      1.0959479    
     69300   313.58245      1.0959479    
     69400   302.62724      1.0959479    
     69500   303.52164      1.0959479    
     69600   292.27825      1.0959479    
     69700   299.79971      1.0959479    
     69800   300.37607      1.0959479    
     69900   302.84323      1.0959479    
     70000   306.90152      1.0959479    
     70100   307.79874      1.0959479    
     70200   295.45125      1.0959479    
     70300   295.31287      1.0959479    
     70400   300.12732      1.0959479    
     70500   300.9275       1.0959479    
     70600   313.28905      1.0959479    
     70700   305.50454      1.0959479    
     70800   300.94734      1.0959479    
     70900   303.59104      1.0959479    
     71000   300.65133      1.0959479    
     71100   303.13546      1.0959479    
     71200   292.56948      1.0959479    
     71300   299.30516      1.0959479    
     71400   297.02567      1.0959479    
     71500   302.84748      1.0959479    
     71600   299.18033      1.0959479    
     71700   296.66036      1.0959479    
     71800   292.8694       1.0959479    
     71900   302.99189      1.0959479    
     72000   307.66208      1.0959479    
     72100   306.78522      1.0959479    
     72200   301.18481      1.0959479    
     72300   301.80919      1.0959479    
     72400   295.80187      1.0959479    
     72500   292.93513      1.0959479    
     72600   299.93132      1.0959479    
     72700   303.20109      1.0959479    
     72800   300.67868      1.0959479    
     72900   299.63075      1.0959479    
     73000   297.75641      1.0959479    
     73100   301.82774      1.0959479    
     73200   298.73138      1.0959479    
     73300   309.20873      1.0959479    
     73400   303.52111      1.0959479    
     73500   292.71629      1.0959479    
     73600   301.65322      1.0959479    
     73700   300.41246      1.0959479    
     73800   303.73162      1.0959479    
     73900   307.56372      1.0959479    
     74000   305.31426      1.0959479    
     74100   303.56254      1.0959479    
     74200   298.45803      1.0959479    
     74300   302.03787      1.0959479    
     74400   298.52495      1.0959479    
     74500   298.32011      1.0959479    
     74600   302.32197      1.0959479    
     74700   303.45993      1.0959479    
     74800   298.8573       1.0959479    
     74900   297.10589      1.0959479    
     75000   299.47984      1.0959479    
     75100   305.58997      1.0959479    
     75200   308.72761      1.0959479    
     75300   292.84226      1.0959479    
     75400   293.51845      1.0959479    
     75500   300.16049      1.0959479    
     75600   302.9031       1.0959479    
     75700   297.84504      1.0959479    
     75800   297.82955      1.0959479    
     75900   292.27197      1.0959479    
     76000   299.7304       1.0959479    
     76100   309.95832      1.0959479    
     76200   303.98049      1.0959479    
     76300   300.96347      1.0959479    
     76400   298.64155      1.0959479    
     76500   298.19772      1.0959479    
     76600   300.65694      1.0959479    
     76700   305.62411      1.0959479    
     76800   301.29042      1.0959479    
     76900   296.098        1.0959479    
     77000   298.02959      1.0959479    
     77100   295.11101      1.0959479    
     77200   297.25044      1.0959479    
     77300   304.17768      1.0959479    
     77400   303.07273      1.0959479    
     77500   295.9488       1.0959479    
     77600   292.38768      1.0959479    
     77700   296.69706      1.0959479    
     77800   292.58854      1.0959479    
     77900   302.90344      1.0959479    
     78000   305.54166      1.0959479    
     78100   295.57786      1.0959479    
     78200   294.90857      1.0959479    
     78300   297.99907      1.0959479    
     78400   301.38682      1.0959479    
     78500   298.54937      1.0959479    
     78600   306.79026      1.0959479    
     78700   298.61967      1.0959479    
     78800   298.46923      1.0959479    
     78900   298.84765      1.0959479    
     79000   299.54789      1.0959479    
     79100   300.86796      1.0959479    
     79200   304.07525      1.0959479    
     79300   298.70007      1.0959479    
     79400   305.46262      1.0959479    
     79500   301.04579      1.0959479    
     79600   305.37149      1.0959479    
     79700   302.80577      1.0959479    
     79800   303.49291      1.0959479    
     79900   298.72814      1.0959479    
     80000   295.76876      1.0959479    
     80100   298.18952      1.0959479    
     80200   304.79545      1.0959479    
     80300   303.19966      1.0959479    
     80400   302.71433      1.0959479    
     80500   297.20266      1.0959479    
     80600   297.80844      1.0959479    
     80700   299.3777       1.0959479    
     80800   304.54973      1.0959479    
     80900   297.61102      1.0959479    
     81000   302.47706      1.0959479    
     81100   296.1867       1.0959479    
     81200   291.98868      1.0959479    
     81300   297.68648      1.0959479    
     81400   298.46874      1.0959479    
     81500   303.33601      1.0959479    
     81600   312.18542      1.0959479    
     81700   299.71112      1.0959479    
     81800   294.74481      1.0959479    
     81900   296.05361      1.0959479    
     82000   301.28455      1.0959479    
     82100   302.31429      1.0959479    
     82200   303.59495      1.0959479    
     82300   301.70093      1.0959479    
     82400   299.71129      1.0959479    
     82500   297.32313      1.0959479    
     82600   291.22694      1.0959479    
     82700   303.10709      1.0959479    
     82800   296.22678      1.0959479    
     82900   300.14145      1.0959479    
     83000   293.47437      1.0959479    
     83100   294.58604      1.0959479    
     83200   305.05861      1.0959479    
     83300   307.38199      1.0959479    
     83400   298.52529      1.0959479    
     83500   295.34831      1.0959479    
     83600   301.62816      1.0959479    
     83700   299.67481      1.0959479    
     83800   305.71735      1.0959479    
     83900   306.31648      1.0959479    
     84000   301.65224      1.0959479    
     84100   294.52454      1.0959479    
     84200   297.30241      1.0959479    
     84300   307.6495       1.0959479    
     84400   305.67197      1.0959479    
     84500   302.38709      1.0959479    
     84600   307.31032      1.0959479    
     84700   299.35331      1.0959479    
     84800   298.96095      1.0959479    
     84900   302.39232      1.0959479    
     85000   306.7701       1.0959479    
     85100   301.57962      1.0959479    
     85200   300.37348      1.0959479    
     85300   300.3795       1.0959479    
     85400   296.78998      1.0959479    
     85500   300.56251      1.0959479    
     85600   306.65427      1.0959479    
     85700   298.08836      1.0959479    
     85800   293.96517      1.0959479    
     85900   293.19611      1.0959479    
     86000   290.51236      1.0959479    
     86100   304.89202      1.0959479    
     86200   302.21737      1.0959479    
     86300   299.6901       1.0959479    
     86400   305.61577      1.0959479    
     86500   297.41385      1.0959479    
     86600   297.07104      1.0959479    
     86700   296.76715      1.0959479    
     86800   310.99395      1.0959479    
     86900   304.61743      1.0959479    
     87000   304.11806      1.0959479    
     87100   296.38395      1.0959479    
     87200   286.36191      1.0959479    
     87300   296.13088      1.0959479    
     87400   302.9663       1.0959479    
     87500   297.92421      1.0959479    
     87600   299.91973      1.0959479    
     87700   298.8679       1.0959479    
     87800   296.57323      1.0959479    
     87900   291.14626      1.0959479    
     88000   305.57175      1.0959479    
     88100   309.46142      1.0959479    
     88200   294.13735      1.0959479    
     88300   293.44837      1.0959479    
     88400   300.65418      1.0959479    
     88500   302.25677      1.0959479    
     88600   307.60828      1.0959479    
     88700   298.50728      1.0959479    
     88800   301.20932      1.0959479    
     88900   305.61862      1.0959479    
     89000   297.87923      1.0959479    
     89100   306.08526      1.0959479    
     89200   300.83679      1.0959479    
     89300   306.54765      1.0959479    
     89400   305.03999      1.0959479    
     89500   299.32226      1.0959479    
     89600   298.97177      1.0959479    
     89700   300.11376      1.0959479    
     89800   305.62579      1.0959479    
     89900   304.75669      1.0959479    
     90000   307.05697      1.0959479    
     90100   294.28097      1.0959479    
     90200   300.45669      1.0959479    
     90300   300.874        1.0959479    
     90400   297.94179      1.0959479    
     90500   303.10262      1.0959479    
     90600   303.66431      1.0959479    
     90700   298.21515      1.0959479    
     90800   295.15982      1.0959479    
     90900   293.34926      1.0959479    
     91000   299.85699      1.0959479    
     91100   305.01179      1.0959479    
     91200   304.26822      1.0959479    
     91300   302.34384      1.0959479    
     91400   298.81228      1.0959479    
     91500   308.85034      1.0959479    
     91600   307.14119      1.0959479    
     91700   297.30609      1.0959479    
     91800   303.27135      1.0959479    
     91900   297.69395      1.0959479    
     92000   298.49139      1.0959479    
     92100   300.4699       1.0959479    
     92200   306.52195      1.0959479    
     92300   303.92512      1.0959479    
     92400   297.88458      1.0959479    
     92500   296.046        1.0959479    
     92600   301.41351      1.0959479    
     92700   305.25934      1.0959479    
     92800   302.9218       1.0959479    
     92900   291.62512      1.0959479    
     93000   295.93644      1.0959479    
     93100   299.95168      1.0959479    
     93200   302.18313      1.0959479    
     93300   297.07926      1.0959479    
     93400   301.06507      1.0959479    
     93500   299.53451      1.0959479    
     93600   291.75269      1.0959479    
     93700   301.90231      1.0959479    
     93800   295.23664      1.0959479    
     93900   301.39458      1.0959479    
     94000   300.7002       1.0959479    
     94100   296.1973       1.0959479    
     94200   295.61971      1.0959479    
     94300   297.51567      1.0959479    
     94400   306.36296      1.0959479    
     94500   302.17905      1.0959479    
     94600   303.11167      1.0959479    
     94700   296.30089      1.0959479    
     94800   299.2558       1.0959479    
     94900   296.59776      1.0959479    
     95000   303.39378      1.0959479    
     95100   300.80955      1.0959479    
     95200   297.64867      1.0959479    
     95300   299.89132      1.0959479    
     95400   301.70379      1.0959479    
     95500   298.51681      1.0959479    
     95600   301.17786      1.0959479    
     95700   303.63786      1.0959479    
     95800   293.60842      1.0959479    
     95900   297.62152      1.0959479    
     96000   298.12323      1.0959479    
     96100   308.22248      1.0959479    
     96200   300.77055      1.0959479    
     96300   294.74865      1.0959479    
     96400   301.17132      1.0959479    
     96500   297.99047      1.0959479    
     96600   304.22311      1.0959479    
     96700   306.39586      1.0959479    
     96800   306.09813      1.0959479    
     96900   300.02829      1.0959479    
     97000   294.15367      1.0959479    
     97100   292.70071      1.0959479    
     97200   299.15993      1.0959479    
     97300   309.55735      1.0959479    
     97400   306.72417      1.0959479    
     97500   300.62329      1.0959479    
     97600   298.21778      1.0959479    
     97700   296.15223      1.0959479    
     97800   301.93625      1.0959479    
     97900   303.2052       1.0959479    
     98000   302.7403       1.0959479    
     98100   298.52297      1.0959479    
     98200   302.35339      1.0959479    
     98300   301.08239      1.0959479    
     98400   299.40012      1.0959479    
     98500   292.24342      1.0959479    
     98600   291.33603      1.0959479    
     98700   296.01403      1.0959479    
     98800   303.80185      1.0959479    
     98900   305.46034      1.0959479    
     99000   301.38714      1.0959479    
     99100   299.96694      1.0959479    
     99200   298.80782      1.0959479    
     99300   299.72884      1.0959479    
     99400   304.5816       1.0959479    
     99500   306.09928      1.0959479    
     99600   295.68149      1.0959479    
     99700   301.7815       1.0959479    
     99800   297.59184      1.0959479    
     99900   301.31668      1.0959479    
    100000   314.34472      1.0959479    
    100100   310.3819       1.0959479    
    100200   300.61797      1.0959479    
    100300   298.01444      1.0959479    
    100400   302.5565       1.0959479    
    100500   296.49783      1.0959479    
    100600   299.13625      1.0959479    
    100700   293.45847      1.0959479    
    100800   296.91458      1.0959479    
    100900   304.6396       1.0959479    
    101000   298.40862      1.0959479    
    101100   297.72851      1.0959479    
    101200   299.27946      1.0959479    
    101300   296.6116       1.0959479    
    101400   298.623        1.0959479    
    101500   295.9015       1.0959479    
    101600   299.83589      1.0959479    
    101700   297.48926      1.0959479    
    101800   301.50335      1.0959479    
    101900   305.15831      1.0959479    
    102000   305.31751      1.0959479    
    102100   297.5126       1.0959479    
    102200   295.17682      1.0959479    
    102300   294.70544      1.0959479    
    102400   296.46841      1.0959479    
    102500   310.84833      1.0959479    
    102600   306.79957      1.0959479    
    102700   296.53047      1.0959479    
    102800   295.79585      1.0959479    
    102900   299.25477      1.0959479    
    103000   295.32408      1.0959479    
    103100   303.42004      1.0959479    
    103200   301.11631      1.0959479    
    103300   301.25327      1.0959479    
    103400   298.80034      1.0959479    
    103500   291.94217      1.0959479    
    103600   302.26454      1.0959479    
    103700   307.92365      1.0959479    
    103800   304.00752      1.0959479    
    103900   304.94668      1.0959479    
    104000   292.11066      1.0959479    
    104100   294.82752      1.0959479    
    104200   300.38793      1.0959479    
    104300   302.76896      1.0959479    
    104400   306.45921      1.0959479    
    104500   300.10591      1.0959479    
    104600   300.59839      1.0959479    
    104700   293.03385      1.0959479    
    104800   298.70757      1.0959479    
    104900   303.39748      1.0959479    
    105000   303.62271      1.0959479    
    105100   291.47756      1.0959479    
    105200   295.55873      1.0959479    
    105300   303.32404      1.0959479    
    105400   298.21941      1.0959479    
    105500   297.39302      1.0959479    
    105600   294.17338      1.0959479    
    105700   310.94268      1.0959479    
    105800   302.82322      1.0959479    
    105900   298.79834      1.0959479    
    106000   299.86211      1.0959479    
    106100   299.69093      1.0959479    
    106200   302.56936      1.0959479    
    106300   298.72389      1.0959479    
    106400   300.92536      1.0959479    
    106500   300.9068       1.0959479    
    106600   307.42123      1.0959479    
    106700   305.39928      1.0959479    
    106800   299.48929      1.0959479    
    106900   300.72372      1.0959479    
    107000   287.37356      1.0959479    
    107100   302.90368      1.0959479    
    107200   307.05         1.0959479    
    107300   306.63566      1.0959479    
    107400   298.42377      1.0959479    
    107500   299.71632      1.0959479    
    107600   294.11945      1.0959479    
    107700   309.93006      1.0959479    
    107800   307.73852      1.0959479    
    107900   304.05545      1.0959479    
    108000   294.85524      1.0959479    
    108100   302.41812      1.0959479    
    108200   303.77986      1.0959479    
    108300   307.37649      1.0959479    
    108400   304.02183      1.0959479    
    108500   302.97978      1.0959479    
    108600   297.11433      1.0959479    
    108700   300.97742      1.0959479    
    108800   300.64658      1.0959479    
    108900   296.69533      1.0959479    
    109000   302.8873       1.0959479    
    109100   308.81167      1.0959479    
    109200   298.81204      1.0959479    
    109300   296.85318      1.0959479    
    109400   299.09859      1.0959479    
    109500   303.35391      1.0959479    
    109600   302.65613      1.0959479    
    109700   299.23879      1.0959479    
    109800   303.74278      1.0959479    
    109900   302.22366      1.0959479    
    110000   300.88958      1.0959479    
    110100   295.81093      1.0959479    
    110200   298.60163      1.0959479    
    110300   303.12258      1.0959479    
    110400   304.77436      1.0959479    
    110500   300.56626      1.0959479    
    110600   297.23229      1.0959479    
    110700   295.18479      1.0959479    
    110800   295.61637      1.0959479    
    110900   300.50037      1.0959479    
    111000   303.07009      1.0959479    
    111100   304.05529      1.0959479    
    111200   293.09264      1.0959479    
    111300   292.33819      1.0959479    
    111400   297.44107      1.0959479    
    111500   298.76638      1.0959479    
    111600   300.40074      1.0959479    
    111700   308.05445      1.0959479    
    111800   294.36659      1.0959479    
    111900   296.26024      1.0959479    
    112000   304.04961      1.0959479    
    112100   300.88292      1.0959479    
    112200   302.09389      1.0959479    
    112300   302.51405      1.0959479    
    112400   296.24186      1.0959479    
    112500   298.26834      1.0959479    
    112600   291.72046      1.0959479    
    112700   292.10638      1.0959479    
    112800   295.89634      1.0959479    
    112900   300.35049      1.0959479    
    113000   303.86257      1.0959479    
    113100   301.34818      1.0959479    
    113200   298.14321      1.0959479    
    113300   300.91468      1.0959479    
    113400   296.5416       1.0959479    
    113500   301.9506       1.0959479    
    113600   301.90715      1.0959479    
    113700   306.06805      1.0959479    
    113800   298.08576      1.0959479    
    113900   294.54372      1.0959479    
    114000   307.80817      1.0959479    
    114100   303.50265      1.0959479    
    114200   303.97829      1.0959479    
    114300   297.0284       1.0959479    
    114400   294.80049      1.0959479    
    114500   292.5174       1.0959479    
    114600   294.86969      1.0959479    
    114700   300.93474      1.0959479    
    114800   303.06052      1.0959479    
    114900   301.08064      1.0959479    
    115000   300.30644      1.0959479    
    115100   292.12872      1.0959479    
    115200   296.85955      1.0959479    
    115300   296.15829      1.0959479    
    115400   290.28944      1.0959479    
    115500   303.30147      1.0959479    
    115600   293.66737      1.0959479    
    115700   292.32827      1.0959479    
    115800   292.70324      1.0959479    
    115900   296.21876      1.0959479    
    116000   295.11822      1.0959479    
    116100   299.62698      1.0959479    
    116200   301.59592      1.0959479    
    116300   300.65537      1.0959479    
    116400   299.17638      1.0959479    
    116500   296.64066      1.0959479    
    116600   297.33597      1.0959479    
    116700   303.89044      1.0959479    
    116800   304.29191      1.0959479    
    116900   295.97344      1.0959479    
    117000   295.96426      1.0959479    
    117100   302.71877      1.0959479    
    117200   298.6266       1.0959479    
    117300   301.31312      1.0959479    
    117400   297.87525      1.0959479    
    117500   301.5094       1.0959479    
    117600   301.70885      1.0959479    
    117700   304.692        1.0959479    
    117800   302.20887      1.0959479    
    117900   297.26545      1.0959479    
    118000   298.06166      1.0959479    
    118100   297.16036      1.0959479    
    118200   293.78422      1.0959479    
    118300   305.21271      1.0959479    
    118400   302.92374      1.0959479    
    118500   306.28815      1.0959479    
    118600   296.15961      1.0959479    
    118700   301.14698      1.0959479    
    118800   298.32238      1.0959479    
    118900   304.13636      1.0959479    
    119000   308.31566      1.0959479    
    119100   305.22554      1.0959479    
    119200   310.6304       1.0959479    
    119300   299.96141      1.0959479    
    119400   296.4849       1.0959479    
    119500   297.97537      1.0959479    
    119600   307.89443      1.0959479    
    119700   311.68079      1.0959479    
    119800   300.16709      1.0959479    
    119900   296.5723       1.0959479    
    120000   300.84784      1.0959479    
    120100   299.07399      1.0959479    
    120200   297.55054      1.0959479    
    120300   305.86859      1.0959479    
    120400   302.04433      1.0959479    
    120500   300.24881      1.0959479    
    120600   300.9746       1.0959479    
    120700   297.78854      1.0959479    
    120800   294.5027       1.0959479    
    120900   302.21918      1.0959479    
    121000   306.42591      1.0959479    
    121100   299.217        1.0959479    
    121200   298.80431      1.0959479    
    121300   294.81226      1.0959479    
    121400   300.97761      1.0959479    
    121500   308.01189      1.0959479    
    121600   308.35169      1.0959479    
    121700   302.44651      1.0959479    
    121800   295.45357      1.0959479    
    121900   292.25863      1.0959479    
    122000   301.71822      1.0959479    
    122100   302.52899      1.0959479    
    122200   307.0067       1.0959479    
    122300   294.1277       1.0959479    
    122400   297.94567      1.0959479    
    122500   304.49536      1.0959479    
    122600   305.49685      1.0959479    
    122700   302.28389      1.0959479    
    122800   306.47115      1.0959479    
    122900   300.75996      1.0959479    
    123000   301.033        1.0959479    
    123100   296.21063      1.0959479    
    123200   288.17157      1.0959479    
    123300   292.96358      1.0959479    
    123400   301.97612      1.0959479    
    123500   298.43247      1.0959479    
    123600   299.85779      1.0959479    
    123700   306.0287       1.0959479    
    123800   300.65617      1.0959479    
    123900   295.04161      1.0959479    
    124000   298.45947      1.0959479    
    124100   302.61016      1.0959479    
    124200   303.63963      1.0959479    
    124300   303.88442      1.0959479    
    124400   294.88839      1.0959479    
    124500   295.50392      1.0959479    
    124600   295.92493      1.0959479    
    124700   297.02284      1.0959479    
    124800   298.63619      1.0959479    
    124900   308.73739      1.0959479    
    125000   306.58851      1.0959479    
    125100   301.62767      1.0959479    
    125200   293.7275       1.0959479    
    125300   299.79405      1.0959479    
    125400   307.62033      1.0959479    
    125500   305.92979      1.0959479    
    125600   307.0838       1.0959479    
    125700   300.05224      1.0959479    
    125800   294.10441      1.0959479    
    125900   303.23479      1.0959479    
    126000   297.92882      1.0959479    
    126100   305.55293      1.0959479    
    126200   304.09884      1.0959479    
    126300   294.5825       1.0959479    
    126400   301.95087      1.0959479    
    126500   295.17483      1.0959479    
    126600   304.98111      1.0959479    
    126700   300.92965      1.0959479    
    126800   300.55691      1.0959479    
    126900   302.14388      1.0959479    
    127000   302.21522      1.0959479    
    127100   298.15909      1.0959479    
    127200   294.83392      1.0959479    
    127300   295.21965      1.0959479    
    127400   298.08499      1.0959479    
    127500   304.23038      1.0959479    
    127600   300.68599      1.0959479    
    127700   295.85723      1.0959479    
    127800   293.49141      1.0959479    
    127900   296.78306      1.0959479    
    128000   295.55119      1.0959479    
    128100   299.9819       1.0959479    
    128200   298.09631      1.0959479    
    128300   305.58128      1.0959479    
    128400   298.40408      1.0959479    
    128500   299.15042      1.0959479    
    128600   297.42877      1.0959479    
    128700   305.52209      1.0959479    
    128800   299.97901      1.0959479    
    128900   302.88819      1.0959479    
    129000   298.13426      1.0959479    
    129100   296.69912      1.0959479    
    129200   297.77386      1.0959479    
    129300   305.26639      1.0959479    
    129400   305.17583      1.0959479    
    129500   296.95593      1.0959479    
    129600   295.36722      1.0959479    
    129700   295.51577      1.0959479    
    129800   297.14749      1.0959479    
    129900   296.97147      1.0959479    
    130000   299.83897      1.0959479    
    130100   306.98858      1.0959479    
    130200   301.94458      1.0959479    
    130300   295.44023      1.0959479    
    130400   301.11782      1.0959479    
    130500   297.99073      1.0959479    
    130600   297.83442      1.0959479    
    130700   302.61742      1.0959479    
    130800   298.15642      1.0959479    
    130900   291.79422      1.0959479    
    131000   295.01316      1.0959479    
    131100   298.23873      1.0959479    
    131200   304.55372      1.0959479    
    131300   299.05795      1.0959479    
    131400   297.70804      1.0959479    
    131500   301.48478      1.0959479    
    131600   301.18199      1.0959479    
    131700   297.7952       1.0959479    
    131800   295.04679      1.0959479    
    131900   298.31377      1.0959479    
    132000   302.5969       1.0959479    
    132100   294.93525      1.0959479    
    132200   301.21212      1.0959479    
    132300   303.51998      1.0959479    
    132400   294.5949       1.0959479    
    132500   295.48087      1.0959479    
    132600   299.84772      1.0959479    
    132700   297.98125      1.0959479    
    132800   303.13294      1.0959479    
    132900   302.15396      1.0959479    
    133000   306.53292      1.0959479    
    133100   300.42863      1.0959479    
    133200   292.86649      1.0959479    
    133300   302.05958      1.0959479    
    133400   294.85082      1.0959479    
    133500   300.95123      1.0959479    
    133600   300.47344      1.0959479    
    133700   290.1595       1.0959479    
    133800   297.29598      1.0959479    
    133900   297.18793      1.0959479    
    134000   299.76104      1.0959479    
    134100   299.01517      1.0959479    
    134200   288.52621      1.0959479    
    134300   297.68829      1.0959479    
    134400   300.76272      1.0959479    
    134500   299.76215      1.0959479    
    134600   298.72236      1.0959479    
    134700   301.82893      1.0959479    
    134800   301.89333      1.0959479    
    134900   299.00904      1.0959479    
    135000   298.20727      1.0959479    
    135100   301.43263      1.0959479    
    135200   306.62898      1.0959479    
    135300   303.33419      1.0959479    
    135400   295.81759      1.0959479    
    135500   298.90812      1.0959479    
    135600   291.42461      1.0959479    
    135700   300.24521      1.0959479    
    135800   296.47127      1.0959479    
    135900   297.70769      1.0959479    
    136000   300.59831      1.0959479    
    136100   293.3095       1.0959479    
    136200   295.83945      1.0959479    
    136300   297.30375      1.0959479    
    136400   303.13353      1.0959479    
    136500   298.96589      1.0959479    
    136600   300.17279      1.0959479    
    136700   300.98822      1.0959479    
    136800   295.9987       1.0959479    
    136900   287.35976      1.0959479    
    137000   287.9396       1.0959479    
    137100   303.59232      1.0959479    
    137200   297.10196      1.0959479    
    137300   302.61112      1.0959479    
    137400   300.375        1.0959479    
    137500   291.62812      1.0959479    
    137600   295.56008      1.0959479    
    137700   297.9146       1.0959479    
    137800   301.67334      1.0959479    
    137900   301.36967      1.0959479    
    138000   301.4316       1.0959479    
    138100   303.01563      1.0959479    
    138200   304.63743      1.0959479    
    138300   296.73748      1.0959479    
    138400   297.28552      1.0959479    
    138500   300.60784      1.0959479    
    138600   302.18324      1.0959479    
    138700   309.92425      1.0959479    
    138800   304.16494      1.0959479    
    138900   299.1773       1.0959479    
    139000   297.70034      1.0959479    
    139100   304.86278      1.0959479    
    139200   302.47195      1.0959479    
    139300   303.97139      1.0959479    
    139400   310.19761      1.0959479    
    139500   296.37697      1.0959479    
    139600   298.02583      1.0959479    
    139700   297.85775      1.0959479    
    139800   307.62816      1.0959479    
    139900   303.27392      1.0959479    
    140000   298.9464       1.0959479    
    140100   291.75899      1.0959479    
    140200   299.08044      1.0959479    
    140300   300.99993      1.0959479    
    140400   306.6663       1.0959479    
    140500   304.07934      1.0959479    
    140600   296.51825      1.0959479    
    140700   299.3505       1.0959479    
    140800   305.88158      1.0959479    
    140900   307.04107      1.0959479    
    141000   307.51656      1.0959479    
    141100   310.30835      1.0959479    
    141200   301.93583      1.0959479    
    141300   300.77684      1.0959479    
    141400   298.23607      1.0959479    
    141500   302.98811      1.0959479    
    141600   306.3588       1.0959479    
    141700   300.11364      1.0959479    
    141800   300.58548      1.0959479    
    141900   297.77171      1.0959479    
    142000   301.62597      1.0959479    
    142100   308.51956      1.0959479    
    142200   302.64882      1.0959479    
    142300   302.29719      1.0959479    
    142400   302.31501      1.0959479    
    142500   298.29194      1.0959479    
    142600   294.50616      1.0959479    
    142700   297.4959       1.0959479    
    142800   303.4463       1.0959479    
    142900   302.47249      1.0959479    
    143000   298.92052      1.0959479    
    143100   296.63033      1.0959479    
    143200   294.23824      1.0959479    
    143300   293.45166      1.0959479    
    143400   297.36113      1.0959479    
    143500   299.13106      1.0959479    
    143600   304.33889      1.0959479    
    143700   297.18423      1.0959479    
    143800   296.78086      1.0959479    
    143900   291.16551      1.0959479    
    144000   292.10286      1.0959479    
    144100   300.35451      1.0959479    
    144200   298.96541      1.0959479    
    144300   301.59457      1.0959479    
    144400   303.27397      1.0959479    
    144500   293.3369       1.0959479    
    144600   300.18218      1.0959479    
    144700   303.34957      1.0959479    
    144800   303.15828      1.0959479    
    144900   300.65117      1.0959479    
    145000   299.37887      1.0959479    
    145100   294.441        1.0959479    
    145200   296.27556      1.0959479    
    145300   301.62179      1.0959479    
    145400   301.09239      1.0959479    
    145500   304.68954      1.0959479    
    145600   291.80923      1.0959479    
    145700   303.98202      1.0959479    
    145800   303.28633      1.0959479    
    145900   305.49802      1.0959479    
    146000   300.93774      1.0959479    
    146100   292.37573      1.0959479    
    146200   292.87273      1.0959479    
    146300   297.09864      1.0959479    
    146400   300.70692      1.0959479    
    146500   301.66243      1.0959479    
    146600   300.31748      1.0959479    
    146700   291.01929      1.0959479    
    146800   293.67922      1.0959479    
    146900   295.17237      1.0959479    
    147000   297.55346      1.0959479    
    147100   299.04601      1.0959479    
    147200   304.91993      1.0959479    
    147300   295.02371      1.0959479    
    147400   300.66534      1.0959479    
    147500   296.86673      1.0959479    
    147600   298.22906      1.0959479    
    147700   304.71277      1.0959479    
    147800   299.815        1.0959479    
    147900   298.46135      1.0959479    
    148000   301.26525      1.0959479    
    148100   299.64568      1.0959479    
    148200   296.93693      1.0959479    
    148300   302.55232      1.0959479    
    148400   299.14916      1.0959479    
    148500   298.18833      1.0959479    
    148600   297.40943      1.0959479    
    148700   301.0989       1.0959479    
    148800   297.57859      1.0959479    
    148900   305.88504      1.0959479    
    149000   302.94238      1.0959479    
    149100   302.93153      1.0959479    
    149200   297.28333      1.0959479    
    149300   309.67963      1.0959479    
    149400   304.10123      1.0959479    
    149500   300.1974       1.0959479    
    149600   300.94931      1.0959479    
    149700   301.71061      1.0959479    
    149800   305.19419      1.0959479    
    149900   302.02573      1.0959479    
    150000   306.16145      1.0959479    
    150100   303.27938      1.0959479    
    150200   293.2697       1.0959479    
    150300   300.70464      1.0959479    
    150400   294.55514      1.0959479    
    150500   291.2444       1.0959479    
    150600   299.81538      1.0959479    
    150700   296.37377      1.0959479    
    150800   298.02534      1.0959479    
    150900   300.06902      1.0959479    
    151000   299.49534      1.0959479    
    151100   295.84886      1.0959479    
    151200   294.40117      1.0959479    
    151300   305.62626      1.0959479    
    151400   298.52688      1.0959479    
    151500   299.29309      1.0959479    
    151600   302.14081      1.0959479    
    151700   293.13196      1.0959479    
    151800   292.98783      1.0959479    
    151900   297.98226      1.0959479    
    152000   305.20167      1.0959479    
    152100   303.18135      1.0959479    
    152200   298.87466      1.0959479    
    152300   290.2721       1.0959479    
    152400   300.10418      1.0959479    
    152500   306.73871      1.0959479    
    152600   303.01084      1.0959479    
    152700   300.49331      1.0959479    
    152800   291.91631      1.0959479    
    152900   296.40027      1.0959479    
    153000   303.73779      1.0959479    
    153100   296.71974      1.0959479    
    153200   304.37392      1.0959479    
    153300   299.31712      1.0959479    
    153400   295.3727       1.0959479    
    153500   301.72425      1.0959479    
    153600   303.33168      1.0959479    
    153700   301.96326      1.0959479    
    153800   292.89592      1.0959479    
    153900   293.28494      1.0959479    
    154000   300.31386      1.0959479    
    154100   303.66026      1.0959479    
    154200   299.22626      1.0959479    
    154300   300.92794      1.0959479    
    154400   295.17969      1.0959479    
    154500   296.22485      1.0959479    
    154600   295.752        1.0959479    
    154700   297.11818      1.0959479    
    154800   299.24552      1.0959479    
    154900   302.03406      1.0959479    
    155000   297.18915      1.0959479    
    155100   299.6992       1.0959479    
    155200   296.99521      1.0959479    
    155300   302.40875      1.0959479    
    155400   301.671        1.0959479    
    155500   303.87802      1.0959479    
    155600   297.29718      1.0959479    
    155700   295.13981      1.0959479    
    155800   296.88426      1.0959479    
    155900   299.18267      1.0959479    
    156000   301.75172      1.0959479    
    156100   299.46535      1.0959479    
    156200   296.55928      1.0959479    
    156300   299.53457      1.0959479    
    156400   301.00206      1.0959479    
    156500   306.67094      1.0959479    
    156600   302.57252      1.0959479    
    156700   293.37522      1.0959479    
    156800   296.78749      1.0959479    
    156900   302.19297      1.0959479    
    157000   300.09169      1.0959479    
    157100   296.55161      1.0959479    
    157200   295.00176      1.0959479    
    157300   299.43696      1.0959479    
    157400   294.6547       1.0959479    
    157500   308.16475      1.0959479    
    157600   296.27996      1.0959479    
    157700   297.29714      1.0959479    
    157800   293.87598      1.0959479    
    157900   306.65707      1.0959479    
    158000   301.83226      1.0959479    
    158100   298.92921      1.0959479    
    158200   294.22186      1.0959479    
    158300   294.87604      1.0959479    
    158400   295.18573      1.0959479    
    158500   301.69635      1.0959479    
    158600   299.64652      1.0959479    
    158700   298.60531      1.0959479    
    158800   299.12868      1.0959479    
    158900   302.72327      1.0959479    
    159000   300.07836      1.0959479    
    159100   294.91362      1.0959479    
    159200   302.51088      1.0959479    
    159300   303.61903      1.0959479    
    159400   303.6704       1.0959479    
    159500   303.86305      1.0959479    
    159600   304.47717      1.0959479    
    159700   300.26988      1.0959479    
    159800   301.1059       1.0959479    
    159900   297.71154      1.0959479    
    160000   302.04772      1.0959479    
    160100   309.49822      1.0959479    
    160200   304.52383      1.0959479    
    160300   300.03342      1.0959479    
    160400   290.96128      1.0959479    
    160500   302.26037      1.0959479    
    160600   303.35195      1.0959479    
    160700   308.29504      1.0959479    
    160800   302.94317      1.0959479    
    160900   297.09153      1.0959479    
    161000   298.02987      1.0959479    
    161100   302.69419      1.0959479    
    161200   302.76406      1.0959479    
    161300   296.854        1.0959479    
    161400   300.93225      1.0959479    
    161500   296.91054      1.0959479    
    161600   301.21472      1.0959479    
    161700   305.36106      1.0959479    
    161800   299.88491      1.0959479    
    161900   291.80111      1.0959479    
    162000   295.89151      1.0959479    
    162100   301.71357      1.0959479    
    162200   303.65378      1.0959479    
    162300   306.35118      1.0959479    
    162400   300.53034      1.0959479    
    162500   296.49044      1.0959479    
    162600   298.10635      1.0959479    
    162700   308.56516      1.0959479    
    162800   299.31709      1.0959479    
    162900   300.4239       1.0959479    
    163000   297.32602      1.0959479    
    163100   298.87459      1.0959479    
    163200   310.11241      1.0959479    
    163300   312.69765      1.0959479    
    163400   295.10661      1.0959479    
    163500   303.17664      1.0959479    
    163600   299.26284      1.0959479    
    163700   302.32915      1.0959479    
    163800   296.74629      1.0959479    
    163900   304.70923      1.0959479    
    164000   305.55669      1.0959479    
    164100   295.27296      1.0959479    
    164200   296.71206      1.0959479    
    164300   297.52568      1.0959479    
    164400   298.17461      1.0959479    
    164500   306.77156      1.0959479    
    164600   301.94391      1.0959479    
    164700   307.93941      1.0959479    
    164800   302.03983      1.0959479    
    164900   300.5635       1.0959479    
    165000   291.09312      1.0959479    
    165100   293.62221      1.0959479    
    165200   312.8632       1.0959479    
    165300   303.1382       1.0959479    
    165400   297.52003      1.0959479    
    165500   293.42148      1.0959479    
    165600   298.19112      1.0959479    
    165700   298.81679      1.0959479    
    165800   303.90068      1.0959479    
    165900   307.24217      1.0959479    
    166000   304.85066      1.0959479    
    166100   307.45408      1.0959479    
    166200   302.20786      1.0959479    
    166300   295.05585      1.0959479    
    166400   300.00358      1.0959479    
    166500   306.66391      1.0959479    
    166600   300.93338      1.0959479    
    166700   302.73086      1.0959479    
    166800   305.03637      1.0959479    
    166900   299.72362      1.0959479    
    167000   292.91579      1.0959479    
    167100   300.12146      1.0959479    
    167200   304.96255      1.0959479    
    167300   305.43294      1.0959479    
    167400   303.31801      1.0959479    
    167500   300.69954      1.0959479    
    167600   302.00243      1.0959479    
    167700   299.03128      1.0959479    
    167800   306.47792      1.0959479    
    167900   308.30959      1.0959479    
    168000   301.22026      1.0959479    
    168100   302.95374      1.0959479    
    168200   296.83351      1.0959479    
    168300   302.72935      1.0959479    
    168400   302.40084      1.0959479    
    168500   301.6466       1.0959479    
    168600   309.61228      1.0959479    
    168700   297.4475       1.0959479    
    168800   295.01062      1.0959479    
    168900   294.80116      1.0959479    
    169000   298.66259      1.0959479    
    169100   297.95059      1.0959479    
    169200   301.53001      1.0959479    
    169300   302.35263      1.0959479    
    169400   294.6544       1.0959479    
    169500   293.11497      1.0959479    
    169600   297.36384      1.0959479    
    169700   302.29033      1.0959479    
    169800   297.83279      1.0959479    
    169900   298.25173      1.0959479    
    170000   301.5616       1.0959479    
    170100   299.40457      1.0959479    
    170200   294.20004      1.0959479    
    170300   301.91476      1.0959479    
    170400   291.13338      1.0959479    
    170500   303.69004      1.0959479    
    170600   301.36908      1.0959479    
    170700   301.71169      1.0959479    
    170800   294.04292      1.0959479    
    170900   294.28196      1.0959479    
    171000   300.8914       1.0959479    
    171100   299.31815      1.0959479    
    171200   304.10405      1.0959479    
    171300   289.85828      1.0959479    
    171400   296.15816      1.0959479    
    171500   292.76277      1.0959479    
    171600   297.46609      1.0959479    
    171700   301.3545       1.0959479    
    171800   305.39302      1.0959479    
    171900   293.93232      1.0959479    
    172000   297.64024      1.0959479    
    172100   300.44781      1.0959479    
    172200   303.3366       1.0959479    
    172300   298.80345      1.0959479    
    172400   304.26984      1.0959479    
    172500   297.99132      1.0959479    
    172600   293.10425      1.0959479    
    172700   295.74716      1.0959479    
    172800   299.44911      1.0959479    
    172900   301.55317      1.0959479    
    173000   304.4719       1.0959479    
    173100   297.50771      1.0959479    
    173200   300.65077      1.0959479    
    173300   295.5784       1.0959479    
    173400   299.86406      1.0959479    
    173500   299.72598      1.0959479    
    173600   305.42617      1.0959479    
    173700   308.50808      1.0959479    
    173800   300.50855      1.0959479    
    173900   303.41011      1.0959479    
    174000   304.52732      1.0959479    
    174100   302.01604      1.0959479    
    174200   299.87054      1.0959479    
    174300   295.17344      1.0959479    
    174400   288.94598      1.0959479    
    174500   295.8242       1.0959479    
    174600   300.26837      1.0959479    
    174700   300.64237      1.0959479    
    174800   295.97286      1.0959479    
    174900   295.12548      1.0959479    
    175000   296.95515      1.0959479    
    175100   300.47782      1.0959479    
    175200   298.06824      1.0959479    
    175300   303.73052      1.0959479    
    175400   299.86995      1.0959479    
    175500   290.60917      1.0959479    
    175600   301.48094      1.0959479    
    175700   298.36436      1.0959479    
    175800   299.26584      1.0959479    
    175900   302.07014      1.0959479    
    176000   293.18793      1.0959479    
    176100   295.88382      1.0959479    
    176200   305.67259      1.0959479    
    176300   308.73416      1.0959479    
    176400   307.97155      1.0959479    
    176500   298.85144      1.0959479    
    176600   298.60357      1.0959479    
    176700   297.87943      1.0959479    
    176800   299.32404      1.0959479    
    176900   299.64253      1.0959479    
    177000   300.97597      1.0959479    
    177100   296.15213      1.0959479    
    177200   293.59518      1.0959479    
    177300   308.69736      1.0959479    
    177400   295.56611      1.0959479    
    177500   298.50461      1.0959479    
    177600   300.51044      1.0959479    
    177700   300.20617      1.0959479    
    177800   305.49668      1.0959479    
    177900   302.83005      1.0959479    
    178000   296.638        1.0959479    
    178100   292.93435      1.0959479    
    178200   297.68264      1.0959479    
    178300   298.93341      1.0959479    
    178400   303.48534      1.0959479    
    178500   305.33416      1.0959479    
    178600   301.08967      1.0959479    
    178700   302.66186      1.0959479    
    178800   293.79367      1.0959479    
    178900   303.36461      1.0959479    
    179000   300.97443      1.0959479    
    179100   300.24915      1.0959479    
    179200   297.16602      1.0959479    
    179300   306.65684      1.0959479    
    179400   304.60362      1.0959479    
    179500   304.50443      1.0959479    
    179600   299.22055      1.0959479    
    179700   305.48508      1.0959479    
    179800   291.65602      1.0959479    
    179900   295.82981      1.0959479    
    180000   298.15258      1.0959479    
    180100   305.70565      1.0959479    
    180200   307.91103      1.0959479    
    180300   300.41339      1.0959479    
    180400   292.96657      1.0959479    
    180500   297.24591      1.0959479    
    180600   303.64849      1.0959479    
    180700   300.9248       1.0959479    
    180800   304.63367      1.0959479    
    180900   298.36079      1.0959479    
    181000   296.38324      1.0959479    
    181100   295.37359      1.0959479    
    181200   303.51084      1.0959479    
    181300   306.62333      1.0959479    
    181400   312.53636      1.0959479    
    181500   305.84832      1.0959479    
    181600   299.82652      1.0959479    
    181700   298.35497      1.0959479    
[...]
    707800   306.36731      1.21356      
    707900   295.92056      1.2026198    
    708000   292.05         1.2059001    
    708100   298.11359      1.2053919    
    708200   307.94335      1.2039377    
    708300   304.11216      1.2013537    
    708400   303.97957      1.2065371    
    708500   300.86708      1.2032374    
    708600   290.94712      1.2085647    
    708700   293.97003      1.205316     
    708800   297.51685      1.2083551    
    708900   301.49894      1.2046206    
    709000   299.13207      1.2029445    
    709100   299.98644      1.2066539    
    709200   297.25774      1.1987044    
    709300   291.88286      1.1938839    
    709400   301.88537      1.2090791    
    709500   299.39173      1.2028148    
    709600   297.18056      1.1977004    
    709700   306.4727       1.199145     
    709800   309.02443      1.2012626    
    709900   295.89252      1.2020719    
    710000   290.81153      1.2107002    
    710100   303.47749      1.2030125    
    710200   304.91232      1.2004408    
    710300   295.3879       1.1925506    
    710400   296.47474      1.1993162    
    710500   300.9146       1.1926705    
    710600   307.11297      1.1967403    
    710700   308.23277      1.1925515    
    710800   297.43216      1.191778     
    710900   299.25348      1.1896944    
    711000   298.05659      1.2017122    
    711100   301.20763      1.2096735    
    711200   298.3138       1.1982485    
    711300   301.43158      1.1973964    
    711400   301.52748      1.208037     
    711500   305.90705      1.1987723    
    711600   298.01506      1.209769     
    711700   302.09912      1.2054997    
    711800   302.52892      1.2004777    
    711900   303.22691      1.2181633    
    712000   301.48466      1.2130788    
    712100   304.5951       1.206227     
    712200   302.81862      1.2140181    
    712300   296.83925      1.2059022    
    712400   303.51358      1.2041389    
    712500   303.91389      1.2089275    
    712600   303.80334      1.2031244    
    712700   304.91838      1.1997079    
    712800   297.98268      1.1972288    
    712900   297.75262      1.2025966    
    713000   301.19839      1.1985612    
    713100   304.55418      1.2040712    
    713200   301.91267      1.2019194    
    713300   300.69227      1.207166     
    713400   306.14175      1.209103     
    713500   297.10507      1.1988377    
    713600   301.02101      1.1934581    
    713700   303.89361      1.1935648    
    713800   307.14657      1.1941077    
    713900   295.56961      1.1932407    
    714000   297.01562      1.1928629    
    714100   294.77242      1.204959     
    714200   297.74005      1.2005161    
    714300   303.43431      1.2061765    
    714400   300.37402      1.1990477    
    714500   299.46232      1.2087863    
    714600   294.01648      1.1968564    
    714700   293.97122      1.2067155    
    714800   304.49938      1.2013734    
    714900   303.78425      1.1934751    
    715000   298.64018      1.1945088    
    715100   300.85245      1.1974527    
    715200   297.35756      1.1994019    
    715300   290.53684      1.2042473    
    715400   293.19798      1.2135405    
    715500   301.59776      1.2084699    
    715600   301.13821      1.2022009    
    715700   301.66576      1.1983314    
    715800   302.04086      1.2034149    
    715900   292.06994      1.2014497    
    716000   287.65355      1.201896     
    716100   296.73797      1.1995867    
    716200   302.79546      1.201501     
    716300   293.97222      1.1993287    
    716400   303.32717      1.2010993    
    716500   295.18707      1.2047037    
    716600   298.72914      1.2161044    
    716700   300.66068      1.2157401    
    716800   302.83933      1.2147309    
    716900   302.20087      1.2125351    
    717000   300.65746      1.2099985    
    717100   296.93532      1.2003723    
    717200   301.5497       1.2152179    
    717300   299.03132      1.2118262    
    717400   291.05738      1.2166832    
    717500   302.17455      1.2168232    
    717600   304.15731      1.202122     
    717700   302.44419      1.2057633    
    717800   300.48798      1.2062849    
    717900   293.01821      1.2087491    
    718000   296.69939      1.2047734    
    718100   299.06877      1.1974584    
    718200   303.90785      1.2056363    
    718300   297.43761      1.2030285    
    718400   298.70765      1.1961775    
    718500   291.46682      1.2015628    
    718600   297.30153      1.1947523    
    718700   300.47928      1.1973201    
    718800   305.20216      1.2019704    
    718900   305.76013      1.2138866    
    719000   298.11716      1.2129402    
    719100   294.14697      1.2089388    
    719200   294.55781      1.2106118    
    719300   300.00826      1.214769     
    719400   302.72627      1.2082361    
    719500   299.63385      1.2063641    
    719600   294.47087      1.1967824    
    719700   304.78122      1.2030656    
    719800   309.07548      1.1980493    
    719900   306.77719      1.1956262    
    720000   304.22554      1.1995068    
    720100   298.48522      1.2059729    
    720200   299.91131      1.21032      
    720300   298.53013      1.2107413    
    720400   297.31061      1.2093908    
    720500   307.55973      1.2116957    
    720600   300.22936      1.2122932    
    720700   299.14763      1.212043     
    720800   298.45894      1.2173176    
    720900   299.45351      1.217831     
    721000   301.92205      1.2130557    
    721100   302.57815      1.206567     
    721200   298.27935      1.2076418    
    721300   298.69483      1.2045644    
    721400   296.79727      1.2078927    
    721500   299.22981      1.2115732    
    721600   300.54683      1.1992948    
    721700   305.97112      1.2023191    
    721800   304.61455      1.2020735    
    721900   298.14755      1.2018876    
    722000   295.81127      1.2127294    
    722100   294.52512      1.2035403    
    722200   298.16709      1.2054589    
    722300   307.35637      1.197218     
    722400   297.44676      1.2012882    
    722500   295.35836      1.1976679    
    722600   301.97276      1.2051953    
    722700   298.56171      1.1982525    
    722800   301.12575      1.2040395    
    722900   297.55654      1.2075579    
    723000   306.41253      1.2082804    
    723100   297.41094      1.2041691    
    723200   299.37822      1.2059629    
    723300   297.24974      1.2041371    
    723400   299.09993      1.2028204    
    723500   294.3          1.2023041    
    723600   296.86897      1.1999319    
    723700   297.09909      1.1963402    
    723800   298.62283      1.1875955    
    723900   299.13638      1.1998672    
    724000   300.21454      1.2075444    
    724100   297.23516      1.2075291    
    724200   299.44133      1.2120165    
    724300   296.98991      1.2034759    
    724400   296.05018      1.2122585    
    724500   299.07184      1.2066788    
    724600   302.21625      1.2061988    
    724700   302.7909       1.2094082    
    724800   295.08318      1.2104872    
    724900   289.43589      1.2086275    
    725000   290.56037      1.2075127    
    725100   296.02925      1.2071315    
    725200   303.53745      1.2148972    
    725300   301.20261      1.1997048    
    725400   300.7849       1.1949181    
    725500   299.72523      1.1958253    
    725600   297.28372      1.1984186    
    725700   300.20432      1.2063486    
    725800   304.73576      1.2055059    
    725900   304.09097      1.2074359    
    726000   308.91815      1.2064883    
    726100   295.43798      1.211992     
    726200   301.04016      1.2174409    
    726300   299.19106      1.2207249    
    726400   312.15004      1.2173577    
    726500   302.40475      1.2022118    
    726600   299.08805      1.2078268    
    726700   297.69193      1.2106532    
    726800   302.67094      1.204595     
    726900   301.73323      1.2036017    
    727000   305.13791      1.197673     
    727100   305.59204      1.195726     
    727200   299.84695      1.2005433    
    727300   302.11014      1.2027002    
    727400   298.5991       1.2001569    
    727500   298.18923      1.2008682    
    727600   301.65775      1.206124     
    727700   304.55239      1.1944796    
    727800   306.12305      1.1936709    
    727900   302.48475      1.2036877    
    728000   298.06425      1.2057341    
    728100   300.16456      1.2010402    
    728200   296.45727      1.2123931    
    728300   298.09314      1.2176616    
    728400   298.49665      1.1985997    
    728500   303.54893      1.2108982    
    728600   301.13666      1.2087266    
    728700   298.11831      1.1996723    
    728800   299.44698      1.1996179    
    728900   301.39756      1.2189332    
    729000   309.75875      1.2055435    
    729100   310.78623      1.196994     
    729200   291.76672      1.2025889    
    729300   293.73636      1.2102049    
    729400   295.66574      1.2071834    
    729500   301.10619      1.2097064    
    729600   300.60636      1.2076014    
    729700   302.63406      1.2013524    
    729800   289.74166      1.2034993    
    729900   296.19273      1.2056949    
    730000   302.18472      1.2000954    
    730100   305.48045      1.2143707    
    730200   303.35977      1.2151346    
    730300   297.99854      1.2129031    
    730400   302.64096      1.2053448    
    730500   300.88895      1.2075545    
    730600   308.76246      1.2134931    
    730700   304.09482      1.2171341    
    730800   299.87273      1.2127034    
    730900   296.1851       1.204428     
    731000   297.80811      1.2103657    
    731100   296.59991      1.2147922    
    731200   302.34343      1.2059953    
    731300   302.19055      1.2092167    
    731400   302.17877      1.2045735    
    731500   297.11792      1.2073237    
    731600   299.82664      1.2136191    
    731700   287.0393       1.2142219    
    731800   283.95668      1.2127136    
    731900   290.91708      1.2100797    
    732000   300.65134      1.2222626    
    732100   303.24136      1.2228654    
    732200   296.11453      1.2122927    
    732300   301.2048       1.2102954    
    732400   294.42787      1.2139838    
    732500   294.65321      1.2112137    
    732600   301.61641      1.2084767    
    732700   296.67261      1.2140572    
    732800   303.61332      1.2141113    
    732900   303.05859      1.2111981    
    733000   298.85346      1.2047651    
    733100   298.35799      1.2073449    
    733200   298.10655      1.2115838    
    733300   300.20139      1.2083251    
    733400   302.66775      1.2099756    
    733500   304.2615       1.2174518    
    733600   299.45472      1.2184382    
    733700   305.16825      1.2065936    
    733800   291.26562      1.2053269    
    733900   298.01295      1.2081057    
    734000   302.80324      1.2104778    
    734100   302.21605      1.2113433    
    734200   302.33523      1.2188085    
    734300   296.77349      1.2130563    
    734400   295.36127      1.220452     
    734500   297.26119      1.2174253    
    734600   297.45366      1.201921     
    734700   301.12592      1.2097606    
    734800   312.46938      1.2159694    
    734900   305.39687      1.2142816    
    735000   300.46808      1.2113969    
    735100   302.00743      1.1999302    
    735200   306.16569      1.2105649    
    735300   302.70895      1.2087341    
    735400   311.68747      1.2147025    
    735500   302.97155      1.2170311    
    735600   300.27619      1.2055078    
    735700   302.45576      1.2127924    
    735800   296.49233      1.2137939    
    735900   299.66171      1.2082237    
    736000   302.1206       1.2102956    
    736100   307.60406      1.2041632    
    736200   302.53462      1.2149373    
    736300   299.69108      1.2051844    
    736400   300.94067      1.2118285    
    736500   303.78741      1.2052718    
    736600   293.82949      1.2092492    
    736700   300.80677      1.2200511    
    736800   299.03779      1.2186791    
    736900   292.32501      1.2063908    
    737000   290.99253      1.2019307    
    737100   299.54203      1.2166146    
    737200   303.07951      1.218788     
    737300   298.47394      1.2247722    
    737400   294.62374      1.208243     
    737500   299.06269      1.2059233    
    737600   307.88226      1.2065934    
    737700   305.66589      1.2084818    
    737800   300.32929      1.2125882    
    737900   296.43558      1.2072582    
    738000   301.71922      1.2103806    
    738100   302.15858      1.2150933    
    738200   303.2897       1.211352     
    738300   295.42279      1.2093154    
    738400   294.62757      1.214739     
    738500   297.96151      1.2080737    
    738600   301.26973      1.2173606    
    738700   301.49241      1.2214791    
    738800   303.50452      1.2139807    
    738900   295.41335      1.2204594    
    739000   299.18611      1.2260873    
    739100   297.96329      1.2050324    
    739200   302.18765      1.1906353    
    739300   305.2041       1.195492     
    739400   300.97631      1.2105947    
    739500   298.31003      1.2053098    
    739600   300.20044      1.2076671    
    739700   300.2198       1.2101381    
    739800   298.70665      1.2075404    
    739900   296.73804      1.2085018    
    740000   302.95738      1.2095423    
    740100   305.27444      1.209986     
    740200   303.03839      1.2122755    
    740300   298.53713      1.2138374    
    740400   291.95626      1.2210895    
    740500   303.74808      1.214669     
    740600   303.48237      1.2150093    
    740700   304.8734       1.2160271    
    740800   300.21027      1.2223744    
    740900   302.56401      1.222789     
    741000   293.38585      1.2204761    
    741100   302.30364      1.2154969    
    741200   303.26419      1.2086844    
    741300   306.12498      1.214516     
    741400   307.44074      1.2080838    
    741500   300.27957      1.220408     
    741600   302.37774      1.2228863    
    741700   301.06605      1.2235535    
    741800   296.3156       1.2193455    
    741900   300.62094      1.2108138    
    742000   302.03279      1.2197543    
    742100   302.47563      1.2168488    
    742200   297.3348       1.2134298    
    742300   297.08154      1.2179761    
    742400   299.46832      1.2141887    
    742500   303.46678      1.2067756    
    742600   306.08512      1.2158065    
    742700   296.81965      1.2110975    
    742800   293.47973      1.2122769    
    742900   301.58457      1.2238766    
    743000   297.07654      1.2173878    
    743100   304.75582      1.2126321    
    743200   300.57354      1.2062669    
    743300   297.38173      1.211527     
    743400   300.08428      1.2104082    
    743500   298.4722       1.2119341    
    743600   297.09909      1.1975655    
    743700   304.68642      1.2136563    
    743800   307.19426      1.2195921    
    743900   300.74902      1.2019825    
    744000   301.25076      1.2065772    
    744100   299.68636      1.2065555    
    744200   294.42438      1.2125288    
    744300   302.99815      1.2087149    
    744400   302.11975      1.2020111    
    744500   300.60959      1.1989205    
    744600   303.21161      1.2076604    
    744700   301.65051      1.2070466    
    744800   294.40787      1.2098647    
    744900   303.17202      1.2078369    
    745000   306.45828      1.2178192    
    745100   302.66628      1.2122565    
    745200   296.93547      1.2076423    
    745300   294.99425      1.1936154    
    745400   299.90372      1.2112896    
    745500   301.50486      1.213982     
    745600   299.08744      1.198175     
    745700   305.41216      1.2030795    
    745800   296.80198      1.2061882    
    745900   299.33729      1.20803      
    746000   295.09673      1.2135263    
    746100   307.89563      1.2078466    
    746200   303.11844      1.2086284    
    746300   301.19406      1.2014944    
    746400   297.84976      1.2138218    
    746500   300.64238      1.2218481    
    746600   306.13738      1.2057624    
    746700   310.22786      1.2065267    
    746800   304.40609      1.2130348    
    746900   298.34973      1.2157575    
    747000   293.33473      1.2148599    
    747100   299.06421      1.2129496    
    747200   305.7366       1.2114241    
    747300   307.51324      1.2068115    
    747400   301.47767      1.2067227    
    747500   303.27481      1.2176864    
    747600   304.68189      1.2111612    
    747700   302.50596      1.2160444    
    747800   291.81176      1.2163584    
    747900   294.64385      1.2193111    
    748000   298.36622      1.2160089    
    748100   299.60057      1.2203628    
    748200   301.36078      1.2219109    
    748300   302.5844       1.2064671    
    748400   300.88031      1.2149058    
    748500   293.57637      1.2135669    
    748600   297.11921      1.1993396    
    748700   306.90919      1.2057949    
    748800   304.47325      1.202587     
    748900   297.30197      1.2063089    
    749000   298.71843      1.2179793    
    749100   297.9554       1.2124573    
    749200   302.95144      1.2000289    
    749300   301.62701      1.2087919    
    749400   300.03073      1.2065972    
    749500   297.28707      1.2099776    
    749600   298.96142      1.205993     
    749700   291.91699      1.1965079    
    749800   297.82363      1.2107008    
    749900   300.08085      1.2007086    
    750000   296.08525      1.209131     
    750100   298.84979      1.2055002    
    750200   307.04354      1.2033205    
    750300   298.89791      1.2058687    
    750400   294.31445      1.2091646    
    750500   296.79275      1.2237307    
    750600   310.31269      1.2196647    
    750700   303.34279      1.2102779    
    750800   294.98318      1.2021419    
    750900   299.0502       1.2061369    
    751000   291.27376      1.2151774    
    751100   290.07499      1.2155164    
    751200   295.98078      1.2054299    
    751300   299.41657      1.2117731    
    751400   300.21003      1.2195238    
    751500   300.09674      1.2124702    
    751600   294.83167      1.2131103    
    751700   290.75877      1.2114681    
    751800   304.02212      1.2193192    
    751899   307.66352      1.2205408    
Loop time of 3947.71 on 1 procs for 250000 steps with 2997 atoms

Performance: 5.472 ns/day, 4.386 hours/ns, 63.328 timesteps/s
99.8% CPU use with 1 MPI tasks x 1 OpenMP threads

MPI task timing breakdown:
Section |  min time  |  avg time  |  max time  |%varavg| %total
---------------------------------------------------------------
Pair    | 3330.8     | 3330.8     | 3330.8     |   0.0 | 84.37
Bond    | 102.76     | 102.76     | 102.76     |   0.0 |  2.60
Neigh   | 458.84     | 458.84     | 458.84     |   0.0 | 11.62
Comm    | 17.358     | 17.358     | 17.358     |   0.0 |  0.44
Output  | 0.78718    | 0.78718    | 0.78718    |   0.0 |  0.02
Modify  | 32.432     | 32.432     | 32.432     |   0.0 |  0.82
Other   |            | 4.724      |            |       |  0.12

Nlocal:           2997 ave        2997 max        2997 min
Histogram: 1 0 0 0 0 0 0 0 0 0
Nghost:          14730 ave       14730 max       14730 min
Histogram: 1 0 0 0 0 0 0 0 0 0
Neighs:    1.24238e+06 ave 1.24238e+06 max 1.24238e+06 min
Histogram: 1 0 0 0 0 0 0 0 0 0

Total # of neighbors = 1242380
Ave neighs/atom = 414.54121
Ave special neighs/atom = 12.124124
Neighbor list builds = 12125
Dangerous builds = 0
unfix			1
#final
write_data		after_cross_linking_2.data
System init for write_data ...
Generated 153 of 153 mixed pair_coeff terms from geometric mixing rule

#parameter
neighbor		2.0 bin
Total wall time: 3:05:51
