LAMMPS data file. CGCMM style. atom_style full generated by VMD/TopoTools v1.8 on Fri Sep 30 02:07:35 IST 2022
 3108 atoms
 3084 bonds
 5680 angles
 0 dihedrals
 0 impropers
 13 atom types
 13 bond types
 23 angle types
 0 dihedral types
 0 improper types
 -4.946500 95.053500  xlo xhi
 -7.861000 92.139000  ylo yhi
 -4.977498 95.022502  zlo zhi


Pair Coeffs

1   0.0380000011   2.4499714540 # 1H1C
2   0.0380000011   2.4499714540 # 1H2C
3   0.0389999952   3.8754094636 # C1
4   0.0389999952   3.8754094636 # C2*
5   0.0380000011   2.4499714540 # HC2
6   0.0380000011   2.4499714540 # HH
7   0.0000000000   0.0000000000 # HO1
8   0.0380000011   2.4499714540 # HT
9   0.2280000124   2.8597848722 # O1
10  0.1479999981   3.6170487995 # c1
11  0.0389999952   3.8754094636 # c2
12  0.0380000011   2.4499714540 # h
13  0.2280000124   2.8597848722 # o

Bond Coeffs

1   340.6175     1.1050 # 1H1C-C1
2   340.6175     1.1050 # 1H2C-C1
3   322.7158     1.5260 # C1-C2*
4   340.6175     1.1050 # C1-HT
5   340.6175     1.1050 # C2*-HC2
6   340.6175     1.1050 # C2*-HH
7   384.0000     1.4200 # C2*-O1
8   540.6336     0.9600 # HO1-O1
9   283.0924     1.5200 # c1-c2
10  340.6175     1.1050 # c1-h
11  615.3220     1.2300 # c1-o
12  322.7158     1.5260 # c2-c2
13  340.6175     1.1050 # c2-h

Angle Coeffs

1    39.5000   106.4000 # 1H1C-C1-1H2C
2    44.4000   110.0000 # 1H1C-C1-C2*
3    39.5000   106.4000 # 1H1C-C1-HT
4    44.4000   110.0000 # 1H2C-C1-C2*
5    39.5000   106.4000 # 1H2C-C1-HT
6    46.6000   110.5000 # C1-C2*-C1
7    44.4000   110.0000 # C1-C2*-HC2
8    44.4000   110.0000 # C1-C2*-HH
9    70.0000   109.5000 # C1-C2*-O1
10   46.6000   110.5000 # C2*-C1-C2*
11   44.4000   110.0000 # C2*-C1-HT
12   58.5000   106.0000 # C2*-O1-HO1
13   39.5000   106.4000 # HC2-C2*-HH
14   57.0000   109.5000 # HC2-C2*-01
15   57.0000   109.5000 # HH-C2*-01
16   46.6000   110.5000 # c1-c2-c2
17   45.0000   109.5000 # c1-c2-h
18   50.0000   120.0000 # c2-c1-h
19   68.0000   120.0000 # c2-c1-o
20   46.6000   110.5000 # c2-c2-c2
21   44.4000   110.0000 # c2-c2-h
22   55.0000   120.0000 # h-c1-o
23   39.5000   106.4000 # h-c2-h

 Masses

 1 1.007940 # 1H1C
 2 1.007940 # 1H2C
 3 12.010700 # C1
 4 12.010700 # C2*
 5 1.007940 # HC2
 6 1.007940 # HH
 7 1.007940 # HO1
 8 1.007940 # HT
 9 15.999400 # O1
 10 12.010700 # c1
 11 12.010700 # c2
 12 1.007940 # h
 13 15.999400 # o

 Atoms # full

1 1 8 0.000000 89.763000 9.626000 86.151001 # HT VIN
2 1 3 0.000000 89.197998 10.081000 85.316002 # C1 VIN
3 1 4 0.000000 88.069000 10.938000 85.777000 # C2* VIN
4 1 1 0.000000 88.910004 9.232000 84.709999 # 1H1C VIN
5 1 2 0.000000 90.046997 10.634000 84.858002 # 1H2C VIN
6 1 5 0.000000 87.254997 10.326000 86.224998 # HC2 VIN
7 1 9 0.000000 87.644997 11.550000 84.559998 # O1 VIN
8 1 7 0.000000 88.443001 11.915000 84.179001 # HO1 VIN
9 1 8 0.000000 89.191002 12.669000 86.094002 # HT VIN
10 1 3 0.000000 88.461998 12.088000 86.740997 # C1 VIN
11 1 4 0.000000 87.174004 12.909000 87.110001 # C2* VIN
12 1 1 0.000000 89.003998 11.771000 87.598000 # 1H1C VIN
13 1 5 0.000000 86.561996 13.060000 86.203003 # HC2 VIN
14 1 9 0.000000 86.410004 12.110000 88.028999 # O1 VIN
15 1 7 0.000000 86.611000 12.457000 88.863998 # HO1 VIN
16 1 8 0.000000 88.227997 14.143000 88.568001 # HT VIN
17 1 3 0.000000 87.477997 14.225000 87.777000 # C1 VIN
18 1 4 0.000000 87.768997 15.382000 86.837997 # C2* VIN
19 1 1 0.000000 86.517998 14.483000 88.370003 # 1H1C VIN
20 1 5 0.000000 86.950996 15.343000 86.030998 # HC2 VIN
21 1 9 0.000000 89.037003 15.316000 86.128998 # O1 VIN
22 1 7 0.000000 89.143997 16.226000 85.898003 # HO1 VIN
23 1 8 0.000000 88.068001 16.674000 88.553001 # HT VIN
24 1 3 0.000000 87.556000 16.714001 87.559998 # C1 VIN
25 1 4 0.000000 88.066002 18.018999 86.848999 # C2* VIN
26 1 1 0.000000 86.482002 16.865999 87.898003 # 1H1C VIN
27 1 5 0.000000 89.165001 18.089001 87.122002 # HC2 VIN
28 1 9 0.000000 87.908997 17.937000 85.408997 # O1 VIN
29 1 7 0.000000 87.030998 18.371000 85.303001 # HO1 VIN
30 1 8 0.000000 87.988998 20.207001 86.931000 # HT VIN
31 1 3 0.000000 87.413002 19.323999 87.238998 # C1 VIN
32 1 4 0.000000 85.977997 19.521000 86.709999 # C2* VIN
33 1 1 0.000000 87.349998 19.372000 88.364998 # 1H1C VIN
34 1 5 0.000000 85.271004 18.789000 87.306999 # HC2 VIN
35 1 9 0.000000 85.883003 19.382000 85.288002 # O1 VIN
36 1 7 0.000000 85.564003 20.200001 84.917000 # HO1 VIN
37 1 8 0.000000 86.139999 21.719999 86.691002 # HT VIN
38 1 3 0.000000 85.504997 20.919001 87.126999 # C1 VIN
39 1 4 0.000000 83.959999 21.084999 86.714996 # C2* VIN
40 1 1 0.000000 85.542999 21.098000 88.224998 # 1H1C VIN
41 1 5 0.000000 83.667000 20.408001 85.851997 # HC2 VIN
42 1 9 0.000000 83.139000 20.663000 87.823997 # O1 VIN
43 1 7 0.000000 82.884003 19.761999 87.657997 # HO1 VIN
44 1 8 0.000000 84.513000 22.700001 85.362000 # HT VIN
45 1 3 0.000000 83.723000 22.490000 86.166000 # C1 VIN
46 1 4 0.000000 82.252998 22.530001 85.657997 # C2* VIN
47 1 1 0.000000 83.768997 23.215000 87.000000 # 1H1C VIN
48 1 5 0.000000 81.527000 22.136000 86.442001 # HC2 VIN
49 1 9 0.000000 82.099998 21.617001 84.525002 # O1 VIN
50 1 7 0.000000 82.540001 22.174000 83.822998 # HO1 VIN
51 1 8 0.000000 82.558998 24.174999 84.379997 # HT VIN
52 1 3 0.000000 81.859001 23.909000 85.221001 # C1 VIN
53 1 4 0.000000 80.402000 24.204000 84.749001 # C2* VIN
54 1 1 0.000000 82.096001 24.636000 86.004997 # 1H1C VIN
55 1 5 0.000000 80.163002 23.641001 83.771004 # HC2 VIN
56 1 9 0.000000 79.444000 23.761000 85.755997 # O1 VIN
57 1 7 0.000000 78.570000 23.941000 85.302002 # HO1 VIN
58 1 8 0.000000 81.054001 26.111000 84.097000 # HT VIN
59 1 3 0.000000 80.160004 25.690001 84.500000 # C1 VIN
60 1 4 0.000000 79.033997 26.079000 83.530998 # C2* VIN
61 1 1 0.000000 79.944000 26.056999 85.500000 # 1H1C VIN
62 1 5 0.000000 78.029999 25.827000 83.978996 # HC2 VIN
63 1 9 0.000000 79.283997 25.426001 82.264000 # O1 VIN
64 1 7 0.000000 80.216003 25.190001 82.318001 # HO1 VIN
65 1 8 0.000000 79.975998 28.054001 83.035004 # HT VIN
66 1 3 0.000000 79.019997 27.681000 83.379997 # C1 VIN
67 1 4 0.000000 78.105003 28.290001 82.276001 # C2* VIN
68 1 1 0.000000 78.764000 28.131001 84.314003 # 1H1C VIN
69 1 5 0.000000 78.559998 28.030001 81.244003 # HC2 VIN
70 1 9 0.000000 76.817001 27.655001 82.332001 # O1 VIN
71 1 7 0.000000 77.177002 26.768000 82.514999 # HO1 VIN
72 1 8 0.000000 78.966003 30.315001 82.834999 # HT VIN
73 1 3 0.000000 77.975998 29.805000 82.517998 # C1 VIN
74 1 4 0.000000 77.525002 30.541000 81.235001 # C2* VIN
75 1 1 0.000000 77.341003 30.091000 83.389999 # 1H1C VIN
76 1 5 0.000000 76.594002 30.039000 80.848000 # HC2 VIN
77 1 9 0.000000 78.610001 30.514999 80.319000 # O1 VIN
78 1 7 0.000000 78.985001 31.379999 80.418999 # HO1 VIN
79 1 8 0.000000 76.303001 31.972000 82.061996 # HT VIN
80 1 3 0.000000 77.181999 32.012001 81.384003 # C1 VIN
81 1 4 0.000000 78.129997 32.938000 82.136002 # C2* VIN
82 1 1 0.000000 76.822998 32.477001 80.460999 # 1H1C VIN
83 1 5 0.000000 78.316002 32.473000 83.146004 # HC2 VIN
84 1 9 0.000000 77.399002 34.132000 82.181000 # O1 VIN
85 1 7 0.000000 78.115997 34.799999 82.325996 # HO1 VIN
86 1 8 0.000000 79.161003 33.331001 80.294998 # HT VIN
87 1 3 0.000000 79.421997 33.252998 81.352997 # C1 VIN
88 1 4 0.000000 80.265999 34.410000 81.889999 # C2* VIN
89 1 1 0.000000 80.120003 32.444000 81.375999 # 1H1C VIN
90 1 5 0.000000 80.598999 34.152000 82.933998 # HC2 VIN
91 1 9 0.000000 79.441002 35.581001 81.830002 # O1 VIN
92 1 7 0.000000 79.181000 35.661999 80.897003 # HO1 VIN
93 1 8 0.000000 81.357002 34.801998 79.922997 # HT VIN
94 1 3 0.000000 81.519997 34.680000 81.007004 # C1 VIN
95 1 4 0.000000 82.456001 35.747002 81.537003 # C2* VIN
96 1 1 0.000000 82.032997 33.695999 80.994003 # 1H1C VIN
97 1 5 0.000000 82.650002 35.530998 82.600998 # HC2 VIN
98 1 9 0.000000 83.627998 35.507999 80.791000 # O1 VIN
99 1 7 0.000000 83.406998 36.115002 80.100998 # HO1 VIN
100 1 8 0.000000 82.764000 37.887001 81.902000 # HT VIN
101 1 3 0.000000 82.082001 37.213001 81.254997 # C1 VIN
102 1 4 0.000000 82.183998 37.738998 79.762001 # C2* VIN
103 1 1 0.000000 80.990997 37.488998 81.547997 # 1H1C VIN
104 1 5 0.000000 81.709000 37.105999 78.969002 # HC2 VIN
105 1 9 0.000000 83.557999 37.896000 79.470001 # O1 VIN
106 1 7 0.000000 83.568001 38.627998 78.758003 # HO1 VIN
107 1 8 0.000000 82.245003 39.912998 80.098999 # HT VIN
108 1 3 0.000000 81.658997 39.126999 79.581001 # C1 VIN
109 1 4 0.000000 81.499001 39.573002 78.092003 # C2* VIN
110 1 1 0.000000 80.678001 39.167000 80.056000 # 1H1C VIN
111 1 5 0.000000 81.268997 40.658001 77.963997 # HC2 VIN
112 1 9 0.000000 82.677002 39.312000 77.383003 # O1 VIN
113 1 7 0.000000 82.521004 39.263000 76.431000 # HO1 VIN
114 1 8 0.000000 79.473000 38.890999 77.983002 # HT VIN
115 1 3 0.000000 80.350998 38.820999 77.328003 # C1 VIN
116 1 4 0.000000 79.947998 39.436001 75.991997 # C2* VIN
117 1 1 0.000000 80.385002 37.686001 77.242996 # 1H1C VIN
118 1 5 0.000000 79.230003 38.743000 75.603996 # HC2 VIN
119 1 9 0.000000 80.982002 39.426998 75.025002 # O1 VIN
120 1 7 0.000000 80.948997 40.313000 74.608002 # HO1 VIN
121 1 8 0.000000 79.815002 41.529999 76.414001 # HT VIN
122 1 3 0.000000 79.191002 40.784000 75.932999 # C1 VIN
123 1 4 0.000000 78.711998 41.212002 74.518997 # C2* VIN
124 1 1 0.000000 78.356003 40.806000 76.614998 # 1H1C VIN
125 1 5 0.000000 78.185997 40.348000 73.991997 # HC2 VIN
126 1 9 0.000000 79.860001 41.476002 73.739998 # O1 VIN
127 1 7 0.000000 79.603996 42.103001 73.108002 # HO1 VIN
128 1 8 0.000000 78.343002 43.325001 74.693001 # HT VIN
129 1 3 0.000000 77.751999 42.417000 74.563004 # C1 VIN
130 1 4 0.000000 76.953003 42.592999 73.235001 # C2* VIN
131 1 1 0.000000 77.132004 42.342999 75.456001 # 1H1C VIN
132 1 5 0.000000 76.723000 41.591000 72.823997 # HC2 VIN
133 1 9 0.000000 77.852997 43.261002 72.315002 # O1 VIN
134 1 7 0.000000 77.380997 43.946999 71.832001 # HO1 VIN
135 1 8 0.000000 75.918999 44.452000 73.623001 # HT VIN
136 1 3 0.000000 75.637001 43.408001 73.596001 # C1 VIN
137 1 4 0.000000 74.546997 43.247002 72.491997 # C2* VIN
138 1 1 0.000000 75.179001 43.265999 74.579002 # 1H1C VIN
139 1 5 0.000000 75.005997 43.570999 71.571999 # HC2 VIN
140 1 9 0.000000 73.452003 44.122002 72.841003 # O1 VIN
141 1 7 0.000000 72.755997 43.727001 72.299004 # HO1 VIN
142 1 8 0.000000 73.454002 41.474998 73.310997 # HT VIN
143 1 3 0.000000 73.954002 41.793999 72.374001 # C1 VIN
144 1 4 0.000000 72.990997 41.675999 71.234001 # C2* VIN
145 1 1 0.000000 74.830002 41.117001 72.203003 # 1H1C VIN
146 1 5 0.000000 73.477997 42.158001 70.356003 # HC2 VIN
147 1 9 0.000000 71.853996 42.488998 71.554001 # O1 VIN
148 1 7 0.000000 71.106003 41.973999 71.165001 # HO1 VIN
149 1 8 0.000000 72.157997 39.880001 72.029999 # HT VIN
150 1 3 0.000000 72.488998 40.181999 71.043999 # C1 VIN
151 1 4 0.000000 71.351997 40.092999 70.016998 # C2* VIN
152 1 1 0.000000 73.350998 39.549000 70.719002 # 1H1C VIN
153 1 5 0.000000 71.677002 40.418999 69.047997 # HC2 VIN
154 1 9 0.000000 70.235001 40.860001 70.449997 # O1 VIN
155 1 7 0.000000 69.514000 40.532001 69.874001 # HO1 VIN
156 1 8 0.000000 70.369003 38.348999 70.969002 # HT VIN
157 1 3 0.000000 70.839996 38.685001 70.003998 # C1 VIN
158 1 4 0.000000 69.843002 38.500000 68.814003 # C2* VIN
159 1 1 0.000000 71.658997 37.971001 69.740997 # 1H1C VIN
160 1 5 0.000000 70.413002 38.952999 67.894997 # HC2 VIN
161 1 9 0.000000 68.718002 39.299000 68.917999 # O1 VIN
162 1 7 0.000000 68.031998 38.737000 68.537003 # HO1 VIN
163 1 8 0.000000 68.869003 36.705002 69.643997 # HT VIN
164 1 3 0.000000 69.358002 37.106998 68.675003 # C1 VIN
165 1 4 0.000000 68.376999 36.933998 67.487999 # C2* VIN
166 1 1 0.000000 70.143997 36.415001 68.509003 # 1H1C VIN
167 1 5 0.000000 68.829002 37.396999 66.547997 # HC2 VIN
168 1 9 0.000000 67.107002 37.549999 67.777000 # O1 VIN
169 1 7 0.000000 66.674004 37.445999 66.934998 # HO1 VIN
170 1 8 0.000000 67.466003 35.043999 67.866997 # HT VIN
171 1 3 0.000000 68.080002 35.521999 67.086998 # C1 VIN
172 1 4 0.000000 67.356003 35.425999 65.732002 # C2* VIN
173 1 1 0.000000 68.950996 34.889000 67.075996 # 1H1C VIN
174 1 5 0.000000 67.778999 36.194000 65.053001 # HC2 VIN
175 1 9 0.000000 65.975998 35.741001 66.014999 # O1 VIN
176 1 7 0.000000 65.581001 34.951000 66.407997 # HO1 VIN
177 1 8 0.000000 66.739998 34.355999 64.023003 # HT VIN
178 1 3 0.000000 67.314003 34.126999 64.928001 # C1 VIN
179 1 4 0.000000 68.567001 33.395000 64.503998 # C2* VIN
180 1 1 0.000000 66.690002 33.424000 65.558998 # 1H1C VIN
181 1 5 0.000000 69.010002 32.816002 65.347000 # HC2 VIN
182 1 9 0.000000 69.634003 34.313999 64.088997 # O1 VIN
183 1 7 0.000000 70.028000 33.702999 63.466999 # HO1 VIN
184 1 8 0.000000 67.835999 33.021999 62.472000 # HT VIN
185 1 3 0.000000 68.106003 32.334000 63.319000 # C1 VIN
186 1 4 0.000000 69.192001 31.348000 63.034000 # C2* VIN
187 1 1 0.000000 67.200996 31.950001 63.743000 # 1H1C VIN
188 1 5 0.000000 69.264999 30.596001 63.881001 # HC2 VIN
189 1 9 0.000000 70.439003 32.063999 62.939999 # O1 VIN
190 1 7 0.000000 71.055000 31.507999 62.526001 # HO1 VIN
191 1 8 0.000000 69.124001 31.483000 61.014000 # HT VIN
192 1 3 0.000000 69.005997 30.636000 61.692001 # C1 VIN
193 1 4 0.000000 70.088997 29.582001 61.415001 # C2* VIN
194 1 1 0.000000 67.970001 30.209000 61.748001 # 1H1C VIN
195 1 5 0.000000 69.955002 29.171000 60.431999 # HC2 VIN
196 1 9 0.000000 71.371002 30.163000 61.439999 # O1 VIN
197 1 7 0.000000 71.911003 29.365999 61.664001 # HO1 VIN
198 1 8 0.000000 69.045998 27.982000 62.483002 # HT VIN
199 1 3 0.000000 70.073997 28.409000 62.395000 # C1 VIN
200 1 4 0.000000 70.983002 27.216000 62.076000 # C2* VIN
201 1 1 0.000000 70.328003 28.708000 63.501999 # 1H1C VIN
202 1 5 0.000000 70.762001 26.382000 62.818001 # HC2 VIN
203 1 9 0.000000 72.364998 27.658001 62.098000 # O1 VIN
204 1 7 0.000000 72.889000 26.816000 61.904999 # HO1 VIN
205 1 8 0.000000 71.316002 27.148001 59.942001 # HT VIN
206 1 3 0.000000 70.838997 26.549000 60.700001 # C1 VIN
207 1 4 0.000000 71.367996 25.143999 60.643002 # C2* VIN
208 1 1 0.000000 69.790001 26.584999 60.382999 # 1H1C VIN
209 1 5 0.000000 72.456001 25.079000 60.660999 # HC2 VIN
210 1 9 0.000000 70.820000 24.407000 61.671001 # O1 VIN
211 1 7 0.000000 70.106003 23.952999 61.233002 # HO1 VIN
212 1 8 0.000000 71.358002 25.106001 58.453999 # HT VIN
213 1 3 0.000000 70.949997 24.464001 59.308998 # C1 VIN
214 1 4 0.000000 71.322998 22.992001 59.207001 # C2* VIN
215 1 1 0.000000 69.864998 24.535000 59.273998 # 1H1C VIN
216 1 5 0.000000 70.790001 22.389999 60.014999 # HC2 VIN
217 1 9 0.000000 72.676003 22.737000 59.271000 # O1 VIN
218 1 7 0.000000 72.781998 22.063999 58.620998 # HO1 VIN
219 1 8 0.000000 71.753998 22.580999 57.185001 # HT VIN
220 1 3 0.000000 70.940002 22.412001 57.849998 # C1 VIN
221 1 4 0.000000 70.771004 20.934000 57.817001 # C2* VIN
222 1 1 0.000000 70.068001 22.962000 57.396000 # 1H1C VIN
223 1 5 0.000000 70.114998 20.658001 58.664001 # HC2 VIN
224 1 9 0.000000 72.070999 20.274000 58.002998 # O1 VIN
225 1 7 0.000000 72.275002 19.933001 57.146999 # HO1 VIN
226 1 8 0.000000 71.181999 20.608000 55.698002 # HT VIN
227 1 3 0.000000 70.296997 20.509001 56.401001 # C1 VIN
228 1 4 0.000000 69.752998 19.051001 56.341000 # C2* VIN
229 1 1 0.000000 69.552002 21.180000 55.983002 # 1H1C VIN
230 1 5 0.000000 69.016998 18.794001 57.110001 # HC2 VIN
231 1 9 0.000000 70.902000 18.209000 56.476002 # O1 VIN
232 1 7 0.000000 70.997002 17.993999 57.380001 # HO1 VIN
233 1 8 0.000000 68.970001 17.503000 55.150002 # HT VIN
234 1 3 0.000000 69.268997 18.514999 55.000000 # C1 VIN
235 1 4 0.000000 68.147003 19.201000 54.334999 # C2* VIN
236 1 1 0.000000 70.136002 18.635000 54.300999 # 1H1C VIN
237 1 5 0.000000 68.639000 20.173000 54.151001 # HC2 VIN
238 1 9 0.000000 68.017998 18.533001 53.140999 # O1 VIN
239 1 7 0.000000 68.181999 17.610001 53.417000 # HO1 VIN
240 1 8 0.000000 66.820000 19.544001 56.007999 # HT VIN
241 1 3 0.000000 66.706001 19.417000 54.907001 # C1 VIN
242 1 4 0.000000 65.890999 20.469000 54.199001 # C2* VIN
243 1 1 0.000000 66.025002 18.535999 54.882999 # 1H1C VIN
244 1 5 0.000000 64.946999 20.629999 54.790001 # HC2 VIN
245 1 9 0.000000 65.541000 19.948000 52.925999 # O1 VIN
246 1 7 0.000000 66.339996 19.700001 52.414001 # HO1 VIN
247 1 8 0.000000 67.401001 21.749001 53.236000 # HT VIN
248 1 3 0.000000 66.570000 21.806999 54.009998 # C1 VIN
249 1 4 0.000000 65.570000 22.952999 53.764000 # C2* VIN
250 1 1 0.000000 67.176003 22.037001 54.890999 # 1H1C VIN
251 1 5 0.000000 64.855003 22.771000 52.915001 # HC2 VIN
252 1 9 0.000000 66.349998 24.025000 53.330002 # O1 VIN
253 1 7 0.000000 66.808998 23.882000 52.501999 # HO1 VIN
254 1 8 0.000000 65.595001 23.750999 55.856998 # HT VIN
255 1 3 0.000000 64.850998 23.452999 55.083000 # C1 VIN
256 1 4 0.000000 63.856998 24.643000 54.869999 # C2* VIN
257 1 1 0.000000 64.264000 22.618999 55.625000 # 1H1C VIN
258 1 5 0.000000 64.431000 25.520000 54.541000 # HC2 VIN
259 1 9 0.000000 63.188000 25.017000 56.082001 # O1 VIN
260 1 7 0.000000 62.417000 25.437000 55.726002 # HO1 VIN
261 1 8 0.000000 62.125000 23.482000 54.224998 # HT VIN
262 1 3 0.000000 62.688000 24.417999 53.903999 # C1 VIN
263 1 4 0.000000 61.749001 25.614000 53.714001 # C2* VIN
264 1 1 0.000000 63.075001 24.250000 52.862000 # 1H1C VIN
265 1 5 0.000000 61.111000 25.827999 54.604000 # HC2 VIN
266 1 9 0.000000 62.491001 26.747999 53.349998 # O1 VIN
267 1 7 0.000000 62.001999 27.106001 52.550999 # HO1 VIN
268 1 8 0.000000 60.448002 24.208000 52.564999 # HT VIN
269 1 3 0.000000 60.814999 25.261000 52.527000 # C1 VIN
270 1 4 0.000000 59.776001 26.214001 51.966000 # C2* VIN
271 1 1 0.000000 61.460999 25.159000 51.652000 # 1H1C VIN
272 1 5 0.000000 59.553001 25.775000 50.964001 # HC2 VIN
273 1 9 0.000000 60.245998 27.548000 52.102001 # O1 VIN
274 1 7 0.000000 59.474998 28.040001 52.402000 # HO1 VIN
275 1 8 0.000000 58.762001 26.306000 53.880001 # HT VIN
276 1 3 0.000000 58.535000 26.056000 52.832001 # C1 VIN
277 1 4 0.000000 57.337002 26.966999 52.403000 # C2* VIN
278 1 1 0.000000 58.236000 24.972000 52.948002 # 1H1C VIN
279 1 5 0.000000 57.216999 26.777000 51.306000 # HC2 VIN
280 1 9 0.000000 57.619999 28.289000 52.740002 # O1 VIN
281 1 7 0.000000 56.771999 28.756001 52.915001 # HO1 VIN
282 1 8 0.000000 56.180000 26.853001 54.305000 # HT VIN
283 1 3 0.000000 56.125999 26.579000 53.189999 # C1 VIN
284 1 4 0.000000 54.773998 27.152000 52.630001 # C2* VIN
285 1 1 0.000000 56.096001 25.462000 53.243999 # 1H1C VIN
286 1 5 0.000000 54.730000 27.038000 51.535000 # HC2 VIN
287 1 9 0.000000 54.841999 28.565001 52.894001 # O1 VIN
288 1 7 0.000000 53.967999 28.778999 52.563999 # HO1 VIN
289 1 8 0.000000 52.639000 27.212000 53.019001 # HT VIN
290 1 3 0.000000 53.460999 26.419001 53.209999 # C1 VIN
291 1 4 0.000000 53.141998 25.094000 52.507999 # C2* VIN
292 1 1 0.000000 53.555000 26.209999 54.334000 # 1H1C VIN
293 1 5 0.000000 53.132999 25.212000 51.418999 # HC2 VIN
294 1 9 0.000000 54.153999 24.152000 52.800999 # O1 VIN
295 1 7 0.000000 54.160000 23.879999 53.709999 # HO1 VIN
296 1 8 0.000000 51.696999 24.502001 54.125000 # HT VIN
297 1 3 0.000000 51.832001 24.419001 52.935001 # C1 VIN
298 1 4 0.000000 50.507000 24.861000 52.139000 # C2* VIN
299 1 1 0.000000 51.893002 23.285000 52.914001 # 1H1C VIN
300 1 5 0.000000 50.558998 25.910000 51.716000 # HC2 VIN
301 1 9 0.000000 49.389000 24.655001 53.049000 # O1 VIN
302 1 7 0.000000 48.571999 25.120001 52.556999 # HO1 VIN
303 1 8 0.000000 50.418999 22.856001 51.400002 # HT VIN
304 1 3 0.000000 50.384998 23.851999 50.977001 # C1 VIN
305 1 4 0.000000 49.014000 23.855000 50.251999 # C2* VIN
306 1 1 0.000000 51.283001 23.827000 50.275002 # 1H1C VIN
307 1 5 0.000000 48.179001 23.666000 51.032001 # HC2 VIN
308 1 9 0.000000 48.770000 25.006001 49.450001 # O1 VIN
309 1 7 0.000000 48.571999 24.677000 48.609001 # HO1 VIN
310 1 8 0.000000 49.286999 21.624001 49.904999 # HT VIN
311 1 3 0.000000 48.969002 22.540001 49.402000 # C1 VIN
312 1 4 0.000000 47.712002 22.264999 48.576000 # C2* VIN
313 1 1 0.000000 49.834000 22.742001 48.665001 # 1H1C VIN
314 1 5 0.000000 47.462002 23.197001 47.998001 # HC2 VIN
315 1 9 0.000000 46.741001 21.910000 49.556999 # O1 VIN
316 1 7 0.000000 45.956001 21.743000 49.015999 # HO1 VIN
317 1 8 0.000000 48.719002 20.393999 48.139000 # HT VIN
318 1 3 0.000000 48.101002 21.120001 47.599998 # C1 VIN
319 1 4 0.000000 46.973000 20.604000 46.679001 # C2* VIN
320 1 1 0.000000 48.856998 21.566999 46.921001 # 1H1C VIN
321 1 5 0.000000 46.268002 19.917000 47.224998 # HC2 VIN
322 1 9 0.000000 46.320000 21.681000 46.098999 # O1 VIN
323 1 7 0.000000 46.230999 21.381001 45.182999 # HO1 VIN
324 1 8 0.000000 48.160999 19.066999 45.838001 # HT VIN
325 1 3 0.000000 47.528000 19.868000 45.477001 # C1 VIN
326 1 4 0.000000 46.442001 19.104000 44.598000 # C2* VIN
327 1 1 0.000000 48.199001 20.441000 44.743999 # 1H1C VIN
328 1 5 0.000000 45.875000 18.476999 45.252998 # HC2 VIN
329 1 9 0.000000 47.207001 18.219000 43.727001 # O1 VIN
330 1 7 0.000000 46.666000 18.201000 42.915001 # HO1 VIN
331 1 8 0.000000 46.027000 20.459999 42.971001 # HT VIN
332 1 3 0.000000 45.467999 19.798000 43.730999 # C1 VIN
333 1 4 0.000000 44.530998 18.764999 42.990002 # C2* VIN
334 1 1 0.000000 44.845001 20.531000 44.334999 # 1H1C VIN
335 1 5 0.000000 44.273998 17.959999 43.700001 # HC2 VIN
336 1 9 0.000000 45.242001 18.281000 41.834000 # O1 VIN
337 1 7 0.000000 44.477001 18.142000 41.254002 # HO1 VIN
338 1 8 0.000000 43.778999 20.152000 41.681999 # HT VIN
339 1 3 0.000000 43.340000 19.483999 42.386002 # C1 VIN
340 1 4 0.000000 42.349998 18.570000 41.595001 # C2* VIN
341 1 1 0.000000 42.744999 20.176001 43.042999 # 1H1C VIN
342 1 5 0.000000 41.868000 17.775000 42.250999 # HC2 VIN
343 1 9 0.000000 43.034000 17.893000 40.557999 # O1 VIN
344 1 7 0.000000 42.205002 17.794001 39.974998 # HO1 VIN
345 1 8 0.000000 41.641998 20.230000 40.223000 # HT VIN
346 1 3 0.000000 41.237000 19.445999 40.890999 # C1 VIN
347 1 4 0.000000 40.216000 18.603001 40.077999 # C2* VIN
348 1 1 0.000000 40.750000 20.031000 41.623001 # 1H1C VIN
349 1 5 0.000000 39.678001 17.840000 40.794998 # HC2 VIN
350 1 9 0.000000 40.856998 17.844999 39.049999 # O1 VIN
351 1 7 0.000000 40.849998 18.339001 38.277000 # HO1 VIN
352 1 8 0.000000 38.334999 19.736000 40.318001 # HT VIN
353 1 3 0.000000 39.037998 19.364000 39.476002 # C1 VIN
354 1 4 0.000000 39.421001 20.584999 38.605999 # C2* VIN
355 1 1 0.000000 38.331001 18.684000 38.950001 # 1H1C VIN
356 1 5 0.000000 39.931000 21.334999 39.273998 # HC2 VIN
357 1 9 0.000000 38.185001 21.139000 38.097000 # O1 VIN
358 1 7 0.000000 37.639000 20.308001 37.965000 # HO1 VIN
359 1 8 0.000000 40.042999 19.385000 37.009998 # HT VIN
360 1 3 0.000000 40.393002 20.336000 37.391998 # C1 VIN
361 1 4 0.000000 40.395000 21.292000 36.230000 # C2* VIN
362 1 1 0.000000 41.459000 20.163000 37.799000 # 1H1C VIN
363 1 5 0.000000 39.335999 21.377001 35.777000 # HC2 VIN
364 1 9 0.000000 41.388000 20.871000 35.330002 # O1 VIN
365 1 7 0.000000 41.627998 21.663000 34.735001 # HO1 VIN
366 1 8 0.000000 41.874001 22.740000 36.948002 # HT VIN
367 1 3 0.000000 40.831001 22.729000 36.575001 # C1 VIN
368 1 4 0.000000 40.570999 23.749001 35.435001 # C2* VIN
369 1 1 0.000000 40.358002 23.101999 37.487999 # 1H1C VIN
370 1 5 0.000000 39.539001 23.723000 35.089001 # HC2 VIN
371 1 9 0.000000 41.362000 23.469999 34.279999 # O1 VIN
372 1 7 0.000000 41.484001 24.278000 33.821999 # HO1 VIN
373 1 8 0.000000 41.686001 25.280001 36.433998 # HT VIN
374 1 3 0.000000 40.784000 25.202000 35.835999 # C1 VIN
375 1 4 0.000000 40.886002 26.263000 34.715000 # C2* VIN
376 1 1 0.000000 39.969002 25.493000 36.537998 # 1H1C VIN
377 1 5 0.000000 41.676998 26.055000 34.000999 # HC2 VIN
378 1 9 0.000000 41.301998 27.422001 35.349998 # O1 VIN
379 1 7 0.000000 40.591999 27.533001 36.001999 # HO1 VIN
380 1 8 0.000000 38.853001 27.070000 34.478001 # HT VIN
381 1 3 0.000000 39.605999 26.518999 33.848000 # C1 VIN
382 1 4 0.000000 40.000000 27.497000 32.714001 # C2* VIN
383 1 1 0.000000 39.233002 25.551001 33.459000 # 1H1C VIN
384 1 5 0.000000 40.772999 27.035000 32.090000 # HC2 VIN
385 1 9 0.000000 40.616001 28.666000 33.216999 # O1 VIN
386 1 7 0.000000 41.146000 28.235001 33.886002 # HO1 VIN
387 1 8 0.000000 37.928001 28.115999 32.262001 # HT VIN
388 1 3 0.000000 38.818001 27.767000 31.722000 # C1 VIN
389 1 4 0.000000 39.132999 28.764999 30.628000 # C2* VIN
390 1 1 0.000000 38.419998 26.818001 31.295000 # 1H1C VIN
391 1 5 0.000000 39.630001 29.590000 31.201000 # HC2 VIN
392 1 9 0.000000 40.138000 28.129000 29.737000 # O1 VIN
393 1 7 0.000000 40.952999 28.273001 30.219999 # HO1 VIN
394 1 8 0.000000 38.092999 30.396999 29.465000 # HT VIN
395 1 3 0.000000 37.875999 29.443001 29.900999 # C1 VIN
396 1 4 0.000000 37.223999 28.525000 28.917000 # C2* VIN
397 1 1 0.000000 37.164001 29.582001 30.681000 # 1H1C VIN
398 1 5 0.000000 37.354000 27.407000 29.155001 # HC2 VIN
399 1 9 0.000000 37.958000 28.660000 27.726000 # O1 VIN
400 1 7 0.000000 38.851002 28.447001 28.025999 # HO1 VIN
401 1 8 0.000000 35.619999 28.691999 27.548000 # HT VIN
402 1 3 0.000000 35.748001 28.799000 28.618000 # C1 VIN
403 1 4 0.000000 34.806000 28.042000 29.530001 # C2* VIN
404 1 1 0.000000 35.492001 29.899000 28.642000 # 1H1C VIN
405 1 5 0.000000 35.245998 27.121000 30.013000 # HC2 VIN
406 1 9 0.000000 33.650002 27.702000 28.802000 # O1 VIN
407 1 7 0.000000 32.992001 27.393000 29.437000 # HO1 VIN
408 1 8 0.000000 33.320999 29.559999 30.427999 # HT VIN
409 1 3 0.000000 34.178001 28.875000 30.716999 # C1 VIN
410 1 4 0.000000 33.580002 28.041000 31.844999 # C2* VIN
411 1 1 0.000000 34.951000 29.537001 31.115999 # 1H1C VIN
412 1 5 0.000000 34.341000 27.349001 32.138000 # HC2 VIN
413 1 9 0.000000 32.439999 27.320999 31.398001 # O1 VIN
414 1 7 0.000000 32.180000 26.922001 32.242001 # HO1 VIN
415 1 8 0.000000 32.198002 29.712999 32.570000 # HT VIN
416 1 3 0.000000 33.120998 29.044001 32.983002 # C1 VIN
417 1 4 0.000000 32.605000 28.395000 34.272999 # C2* VIN
418 1 1 0.000000 34.026001 29.665001 33.212002 # 1H1C VIN
419 1 5 0.000000 31.745001 27.690001 34.127998 # HC2 VIN
420 1 9 0.000000 33.740002 27.719999 34.880001 # O1 VIN
421 1 7 0.000000 33.599998 27.749001 35.817001 # HO1 VIN
422 1 8 0.000000 31.250000 29.959999 34.713001 # HT VIN
423 1 3 0.000000 32.081001 29.497000 35.215000 # C1 VIN
424 1 4 0.000000 31.552000 28.958000 36.540001 # C2* VIN
425 1 1 0.000000 32.860001 30.297001 35.318001 # 1H1C VIN
426 1 5 0.000000 32.466999 28.622000 37.108002 # HC2 VIN
427 1 9 0.000000 30.586000 27.974001 36.333000 # O1 VIN
428 1 7 0.000000 29.851999 28.386999 35.869999 # HO1 VIN
429 1 8 0.000000 31.657000 30.985001 37.500999 # HT VIN
430 1 3 0.000000 30.910999 30.122000 37.430000 # C1 VIN
431 1 4 0.000000 29.483999 30.652000 37.152000 # C2* VIN
432 1 1 0.000000 30.975000 29.653999 38.465000 # 1H1C VIN
433 1 5 0.000000 28.747000 29.826000 37.338001 # HC2 VIN
434 1 9 0.000000 29.462999 31.138000 35.796001 # O1 VIN
435 1 7 0.000000 28.548000 31.093000 35.509998 # HO1 VIN
436 1 8 0.000000 30.118000 32.313000 38.389000 # HT VIN
437 1 3 0.000000 29.152000 31.804001 38.153000 # C1 VIN
438 1 4 0.000000 28.059999 32.705002 37.624001 # C2* VIN
439 1 1 0.000000 28.882999 31.242001 39.077000 # 1H1C VIN
440 1 5 0.000000 27.306000 32.061001 37.181000 # HC2 VIN
441 1 9 0.000000 28.576000 33.523998 36.569000 # O1 VIN
442 1 7 0.000000 29.472000 33.207001 36.345001 # HO1 VIN
443 1 8 0.000000 28.221001 34.241001 39.147999 # HT VIN
444 1 3 0.000000 27.461000 33.625999 38.678001 # C1 VIN
445 1 4 0.000000 26.230000 34.480000 38.339001 # C2* VIN
446 1 1 0.000000 27.153000 32.981998 39.571999 # 1H1C VIN
447 1 5 0.000000 26.361000 35.023998 37.321999 # HC2 VIN
448 1 9 0.000000 26.042000 35.428001 39.417000 # O1 VIN
449 1 7 0.000000 25.405001 35.040001 40.032001 # HO1 VIN
450 1 8 0.000000 24.113001 34.432999 38.187000 # HT VIN
451 1 3 0.000000 24.947001 33.680000 38.237000 # C1 VIN
452 1 4 0.000000 24.688000 32.909000 36.886002 # C2* VIN
453 1 1 0.000000 24.806000 33.033001 39.139999 # 1H1C VIN
454 1 5 0.000000 25.219000 31.934999 36.945000 # HC2 VIN
455 1 9 0.000000 25.059000 33.716000 35.817001 # O1 VIN
456 1 7 0.000000 25.346001 34.513000 36.192001 # HO1 VIN
457 1 8 0.000000 22.507000 33.491001 36.833000 # HT VIN
458 1 3 0.000000 23.125999 32.563999 36.723000 # C1 VIN
459 1 4 0.000000 22.865999 31.847000 35.368999 # C2* VIN
460 1 1 0.000000 22.899000 31.865000 37.651001 # 1H1C VIN
461 1 5 0.000000 23.409000 32.386002 34.563999 # HC2 VIN
462 1 9 0.000000 23.443001 30.551001 35.410000 # O1 VIN
463 1 7 0.000000 24.339001 30.634001 35.713001 # HO1 VIN
464 1 8 0.000000 20.993000 31.033001 35.756001 # HT VIN
465 1 3 0.000000 21.431999 31.698000 35.000999 # C1 VIN
466 1 4 0.000000 20.570999 32.937000 34.832001 # C2* VIN
467 1 1 0.000000 21.375999 31.296000 33.973999 # 1H1C VIN
468 1 5 0.000000 20.556000 33.488998 35.728001 # HC2 VIN
469 1 9 0.000000 19.219000 32.445000 34.662998 # O1 VIN
470 1 7 0.000000 19.194000 31.621000 34.167000 # HO1 VIN
471 1 8 0.000000 20.657000 33.301998 32.730999 # HT VIN
472 1 3 0.000000 20.874001 33.841999 33.667999 # C1 VIN
473 1 4 0.000000 20.180000 35.198002 33.757000 # C2* VIN
474 1 1 0.000000 21.990999 33.912998 33.592999 # 1H1C VIN
475 1 5 0.000000 19.118000 35.118000 34.069000 # HC2 VIN
476 1 9 0.000000 20.893000 35.908001 34.726002 # O1 VIN
477 1 7 0.000000 21.768000 35.507000 34.895000 # HO1 VIN
478 1 8 0.000000 21.202000 35.950001 31.986000 # HT VIN
479 1 3 0.000000 20.183001 36.012001 32.445000 # C1 VIN
480 1 4 0.000000 19.135000 35.654999 31.386000 # C2* VIN
481 1 1 0.000000 20.042999 37.012001 32.743999 # 1H1C VIN
482 1 5 0.000000 19.162001 34.627998 31.052000 # HC2 VIN
483 1 9 0.000000 19.337999 36.484001 30.223000 # O1 VIN
484 1 7 0.000000 18.899000 37.292999 30.563000 # HO1 VIN
485 1 8 0.000000 17.354000 35.127998 32.467999 # HT VIN
486 1 3 0.000000 17.648001 35.902000 31.754000 # C1 VIN
487 1 4 0.000000 17.096001 37.240002 32.270000 # C2* VIN
488 1 1 0.000000 17.111000 35.646000 30.827000 # 1H1C VIN