LAMMPS (23 Jun 2022 - Update 1)
OMP_NUM_THREADS environment is not set. Defaulting to 1 thread. (src/comm.cpp:98)
  using 1 OpenMP thread(s) per MPI task
Loaded 1 plugins from C:\Users\HP\AppData\Local\LAMMPS 64-bit 23Jun2022\plugins
# Initialization
units			real
dimension		3
processors		* * *
boundary		p p p
atom_style		full
pair_style		lj/cut 10.0
bond_style		harmonic
angle_style 	harmonic
read_data		after_cross_linking_correct.data
Reading data file ...
  orthogonal box = (30.222448 27.307948 30.19145) to (59.884552 56.970052 59.853554)
  1 by 1 by 1 MPI processor grid
  reading atoms ...
  2988 atoms
  reading velocities ...
  2988 velocities
  scanning bonds ...
  4 = max bonds/atom
  scanning angles ...
  6 = max angles/atom
  reading bonds ...
  3044 bonds
  reading angles ...
  5800 angles
Finding 1-2 1-3 1-4 neighbors ...
  special bond factors lj:    0        0        0       
  special bond factors coul:  0        0        0       
     4 = max # of 1-2 neighbors
     7 = max # of 1-3 neighbors
    16 = max # of 1-4 neighbors
    20 = max # of special neighbors
  special bonds CPU = 0.005 seconds
  read_data CPU = 0.068 seconds

#output

# mp of PVA 220-230 so going till 200

thermo			100
thermo_style	custom step temp pe press vol lx density
dump			1 all custom 100 thermal_200ps.lammpstrj id type x y z

# npt for 100ps
fix			1 all npt temp 273 273 1000 iso 1 1 100
run			200000
Generated 153 of 153 mixed pair_coeff terms from geometric mixing rule
Neighbor list info ...
  update every 1 steps, delay 10 steps, check yes
  max neighbors/atom: 2000, page size: 100000
  master list distance cutoff = 12
  ghost atom cutoff = 12
  binsize = 6, bins = 5 5 5
  1 neighbor lists, perpetual/occasional/extra = 1 0 0
  (1) pair lj/cut, perpetual
      attributes: half, newton on
      pair build: half/bin/newton
      stencil: half/bin/3d
      bin: standard
WARNING: Inconsistent image flags (src/domain.cpp:819)
Per MPI rank memory allocation (min/avg/max) = 24.87 | 24.87 | 24.87 Mbytes
   Step          Temp          PotEng         Press          Volume           Lx          Density    
         0   296.64116      1290.9831      773.52109      26097.918      29.662104      1.2032419    
       100   302.43413      1235.8793      2344.9336      25848.561      29.567331      1.2148493    
       200   297.56293      1270.9886     -1224.5989      26015.692      29.630919      1.2070449    
       300   299.54165      1239.1527      874.03411      26066.268      29.650108      1.2047029    
       400   292.0103       1292.0894      323.37262      25995.171      29.623126      1.2079977    
       500   289.26426      1298.0189     -1089.519       26029.697      29.636236      1.2063954    
       600   294.14343      1234.5783     -624.77445      26175.196      29.691352      1.1996895    
       700   291.30251      1244.6858     -474.17624      26239.266      29.715558      1.1967601    
       800   290.76808      1232.9009      648.09671      26136.884      29.676859      1.201448     
       900   290.66523      1220.7805     -1303.3576      26095.196      29.661073      1.2033674    
      1000   291.31532      1199.8301      902.81416      25902.779      29.587989      1.2123065    
      1100   294.49944      1155.876       1800.3144      26035.65       29.638495      1.2061196    
      1200   287.54477      1203.8293     -245.69489      26200.781      29.701023      1.198518     
      1300   284.68757      1212.8163     -1300.6574      26202.408      29.701638      1.1984436    
      1400   290.09528      1146.2868     -772.28607      26073.346      29.652792      1.2043758    
      1500   285.59525      1170.1184      161.34016      26128.961      29.67386       1.2018123    
      1600   281.23519      1193.6859      856.32366      26163.309      29.686857      1.2002346    
      1700   284.03019      1150.3759      800.16662      26049.853      29.643883      1.205462     
      1800   283.78276      1134.7482     -1597.2631      26078.576      29.654774      1.2041343    
      1900   289.35601      1067.0401      2263.2073      25931.52       29.598929      1.2109629    
      2000   284.54801      1093.9144     -1056.8473      25962.889      29.610859      1.2094997    
      2100   279.38213      1125.1474      472.57924      25963.03       29.610913      1.2094932    
      2200   280.22113      1102.7284     -710.79562      25989.539      29.620987      1.2082595    
      2300   277.14475      1115.4794     -396.37936      25801.327      29.54931       1.2170733    
      2400   276.83412      1105.8007     -2019.055       26068.346      29.650896      1.2046068    
      2500   281.37128      1048.3282      307.04891      25948.768      29.60549       1.2101579    
      2600   280.05812      1048.2527      322.37815      26019.183      29.632245      1.2068829    
      2700   280.43244      1031.9557      2799.2964      26025.021      29.634461      1.2066122    
      2800   276.38505      1056.8757      1245.3598      26203.107      29.701902      1.1984116    
      2900   272.48512      1080.1222     -1369.1668      26193.871      29.698412      1.1988342    
      3000   276.4728       1032.2007      85.026183      26237.841      29.71502       1.1968251    
      3100   269.31398      1085.6115     -77.01852       26164.426      29.68728       1.2001833    
      3200   274.90239      1025.1165     -228.82635      26151.254      29.682297      1.2007878    
      3300   272.47068      1038.3691     -762.51738      26107.556      29.665755      1.2027977    
      3400   272.98931      1021.8554     -204.99059      26023.741      29.633975      1.2066715    
      3500   270.78067      1031.3421     -1396.2887      26080.329      29.655439      1.2040534    
      3600   274.33846      991.47265      898.04101      25938.369      29.601534      1.2106431    
      3700   274.75473      979.8117      -216.17472      26148.534      29.681268      1.2009127    
      3800   272.45164      994.5494      -75.439326      26096.288      29.661487      1.203317     
      3900   270.46501      1005.4717      248.20557      26105.131      29.664837      1.2029094    
      4000   269.97555      1004.0882      1374.2109      26269.382      29.726923      1.1953881    
      4100   269.55869      1004.5254      543.69837      26302.274      29.739325      1.1938932    
      4200   268.23882      1009.7536     -295.3385       26142.671      29.679049      1.2011821    
      4300   272.90059      963.4255       207.03068      25815.212      29.55461       1.2164187    
      4400   265.77928      1024.1636     -111.94923      25922.063      29.59533       1.2114046    
      4500   268.43816      997.81172      337.61962      26167.528      29.688453      1.200041     
      4600   266.57729      1011.5997      763.05821      25977.316      29.616343      1.208828     
      4700   270.9633       970.86763     -932.37793      25926.259      29.596927      1.2112086    
      4800   270.97902      969.67347     -1104.9547      25885.827      29.581533      1.2131004    
      4900   264.87434      1025.1662      444.83443      25979.628      29.617221      1.2087205    
      5000   267.97656      997.06215      365.35253      26163.939      29.687095      1.2002057    
      5100   265.83354      1018.5147      111.00693      26229.99       29.712056      1.1971834    
      5200   265.8784       1019.4968     -600.85172      26078.378      29.654699      1.2041434    
      5300   267.49323      1006.2562      2340.8647      25996.236      29.623531      1.2079482    
      5400   266.59153      1017.8398     -1216.9084      26179.102      29.692829      1.1995105    
      5500   271.27298      979.81057     -1619.4101      26100.64       29.663135      1.2031164    
      5600   263.00851      1060.2334     -235.38333      26074.745      29.653322      1.2043112    
      5700   269.77489      1006.612       1729.3465      26202.15       29.70154       1.1984554    
      5800   266.66437      1039.5469     -874.43073      26327.585      29.748861      1.1927454    
      5900   275.91645      965.07027      417.82709      26199.818      29.700659      1.1985621    
      6000   273.74876      993.01493      90.770882      26029.255      29.636068      1.2064159    
      6100   267.18868      1057.7982     -769.49348      25935.395      29.600403      1.2107819    
      6200   270.17602      1039.7674     -1607.5837      26207.605      29.703602      1.1982059    
      6300   270.30965      1048.624       1290.6073      26219.3        29.708019      1.1976715    
      6400   272.91077      1033.4423     -2535.2958      26214.885      29.706352      1.1978732    
      6500   275.18706      1018.4965     -1378.0393      26030.605      29.63658       1.2063533    
      6600   278.40964      995.9344       1740.6716      25976.894      29.616182      1.2088476    
      6700   274.08551      1043.1798     -739.94431      26165.66       29.687746      1.2001267    
      6800   274.8873       1040.9572     -1436.4872      26182.271      29.694027      1.1993653    
      6900   271.32526      1079.2794     -1477.599       26027.578      29.635431      1.2064936    
      7000   275.72131      1047.3241      807.05552      26003.312      29.626218      1.2076195    
      7100   273.50887      1072.6686      72.080045      26012.903      29.629861      1.2071743    
      7200   277.31215      1044.9709      1808.6576      26029.894      29.63631       1.2063863    
      7300   282.86451      995.5254       623.21365      26094.814      29.660928      1.203385     
      7400   275.79885      1063.005       519.59947      26036.031      29.638639      1.2061019    
      7500   274.54334      1077.54       -2323.197       26160.656      29.685854      1.2003563    
      7600   270.84796      1113.5835      2324.5937      26112.481      29.66762       1.2025708    
      7700   266.78575      1151.7937     -1271.5021      26114.314      29.668315      1.2024864    
      7800   278.78371      1044.9766      849.8155       26175.251      29.691373      1.199687     
      7900   278.69292      1044.7501      866.47242      25973.196      29.614777      1.2090198    
      8000   273.50373      1089.8284      102.4445       25824.27       29.558066      1.2159921    
      8100   279.81842      1031.6697     -1200.6517      26090.62       29.659339      1.2035784    
      8200   281.82253      1010.4011      965.55386      25859.556      29.571523      1.2143328    
      8300   279.20131      1033.5067     -804.81084      25899.616      29.586785      1.2124545    
      8400   278.44541      1037.4818      797.11258      25716.127      29.516749      1.2211056    
      8500   276.00384      1057.8256     -1392.5724      25859.831      29.571627      1.2143199    
      8600   269.63372      1111.6043      1822.2905      25900.696      29.587196      1.212404     
      8700   277.45757      1036.9761     -300.06052      26050.724      29.644214      1.2054217    
      8800   275.83076      1046.367       502.59785      26004.489      29.626665      1.2075649    
      8900   269.72828      1093.7805     -970.39026      26073.544      29.652867      1.2043667    
      9000   272.02532      1069.3075     -369.71937      26146.588      29.680531      1.2010021    
      9100   278.56139      1003.9182     -1147.7907      26219.623      29.708141      1.1976567    
      9200   272.79538      1048.1921     -2503.4206      26072.993      29.652658      1.2043921    
      9300   272.55582      1040.4345     -228.8781       25868.092      29.574776      1.2139321    
      9400   272.45549      1034.0621      434.02185      26015.566      29.630872      1.2070507    
      9500   268.25856      1065.4692     -604.72004      25934.195      29.599947      1.2108379    
      9600   274.05423      1006.9448      378.78526      25969.069      29.613208      1.2092119    
      9700   269.38871      1041.8258     -192.26763      25976.095      29.615879      1.2088848    
      9800   269.61884      1033.7405     -1025.413       25917.904      29.593747      1.211599     
      9900   269.88878      1024.9618      609.2454       25873.261      29.576746      1.2136896    
     10000   269.58399      1022.4642      2002.6142      25887.754      29.582267      1.2130101    
     10100   271.59822      1003.6724     -1024.5175      26080.088      29.655348      1.2040644    
     10200   275.24546      965.63031      3973.6783      25868.156      29.5748        1.2139291    
     10300   269.1878       1013.8248      515.62744      25906.92       29.589566      1.2121127    
     10400   264.61576      1055.4004      93.477284      26016.382      29.631181      1.2070129    
     10500   264.40271      1055.5278     -12.101271      26170.188      29.689459      1.1999191    
     10600   272.14828      982.72438      1407.7327      25862.449      29.572626      1.214197     
     10700   268.49959      1015.2055     -516.87074      26036.232      29.638716      1.2060926    
     10800   269.8673       1003.7402     -1046.4642      26098.728      29.662411      1.2032045    
     10900   276.32287      943.85171      402.33238      26064.351      29.649381      1.2047915    
     11000   266.78309      1031.3308      1454.597       26174.73       29.691176      1.1997109    
     11100   268.9724       1013.6279      258.24489      26386.776      29.771138      1.1900699    
     11200   264.09659      1063.3362     -3024.2623      26181.752      29.693831      1.1993891    
     11300   269.1467       1021.0047     -369.97199      26073.548      29.652868      1.2043665    
     11400   272.78341      991.62883     -1126.4214      26093.023      29.660249      1.2034676    
     11500   269.11474      1029.8898     -964.60131      26106.385      29.665312      1.2028516    
     11600   273.11521      997.41065      2255.5413      25977.979      29.616594      1.2087972    
     11700   272.10867      1013.2966     -370.1873       26074.864      29.653367      1.2043057    
     11800   267.64796      1057.3407      868.4401       26061.825      29.648424      1.2049082    
     11900   273.47148      1011.4759      546.23264      26123.159      29.671664      1.2020793    
     12000   279.12689      966.90561      1846.6153      25902.624      29.58793       1.2123138    
     12100   275.45287      1008.7542     -112.66619      25944.129      29.603725      1.2103743    
     12200   273.14788      1039.8795      725.10541      25963.09       29.610935      1.2094904    
     12300   276.50887      1019.9508      1248.6073      25876.837      29.578109      1.2135218    
     12400   274.78185      1047.9459      1854.6854      25943.947      29.603656      1.2103828    
     12500   272.14354      1082.4261     -1607.3897      26009.103      29.628418      1.2073507    
     12600   278.68591      1030.9823      1439.075       25876.705      29.578058      1.213528     
     12700   282.56828      1005.15       -159.8473       25834.047      29.561796      1.2155319    
     12800   275.36733      1079.9681     -72.913971      25827.908      29.559454      1.2158208    
     12900   274.36505      1098.8214      52.311848      25868.901      29.575084      1.2138942    
     13000   276.35883      1087.5522     -1966.09        26074.766      29.65333       1.2043102    
     13100   278.28246      1074.8407     -317.56218      26064.263      29.649348      1.2047955    
     13200   280.37768      1057.0429      261.29098      25906.406      29.58937       1.2121368    
     13300   282.55584      1041.7651      188.35515      25897.109      29.58583       1.2125719    
     13400   277.2418       1089.9172     -2461.8969      25767.246      29.536294      1.2186831    
     13500   279.42097      1069.5274      286.74429      25771.675      29.537986      1.2184736    
     13600   284.50052      1019.96        2147.3448      25657.238      29.494201      1.2239084    
     13700   275.7932       1096.7048     -378.21797      25845.11       29.566015      1.2150116    
     13800   278.74004      1066.6472      751.6784       25919.459      29.594339      1.2115263    
     13900   282.15059      1033.5045     -25.005983      25866.757      29.574267      1.2139947    
     14000   277.16519      1074.5011     -978.61214      25903.019      29.588081      1.2122952    
     14100   280.15636      1044.3776      1602.9328      26103.234      29.664118      1.2029968    
     14200   274.70112      1088.2768     -539.59687      25994.68       29.62294       1.2080206    
     14300   272.78899      1101.7509     -738.17092      25845.152      29.566031      1.2150096    
     14400   276.81285      1061.4403      630.11518      25837.179      29.562991      1.2153845    
     14500   277.83047      1046.3755      556.75262      25932.505      29.599303      1.2109169    
     14600   276.07         1059.1895      222.50489      26043.227      29.641369      1.2057687    
     14700   278.73693      1026.3391      1600.5315      25904.922      29.588805      1.2122062    
     14800   271.06551      1092.4727      355.85811      26098.966      29.662501      1.2031936    
     14900   273.04119      1068.4026      683.28357      25890.632      29.583363      1.2128753    
     15000   273.98022      1054.4817     -458.47319      25907.197      29.589671      1.2120998    
     15100   273.96988      1046.3842     -301.31594      25900.597      29.587159      1.2124086    
     15200   278.75495      994.58449      1207.4039      25595.548      29.470544      1.2268582    
     15300   273.46149      1037.6869     -1237.58        25748.015      29.528944      1.2195933    
     15400   275.56781      1014.3137      1823.5756      25983.778      29.618798      1.2085274    
     15500   274.53322      1017.44        111.63884      26054.483      29.645639      1.2052478    
     15600   272.55858      1028.7694     -477.96204      26044.482      29.641845      1.2057106    
     15700   271.16407      1032.6947     -1107.2486      26157.223      29.684555      1.2005138    
     15800   273.85943      1005.4586      184.82781      26245.206      29.7178        1.1964893    
     15900   264.9747       1081.1551      658.09078      26310.1        29.742274      1.1935381    
     16000   271.85078      1015.9309      1042.7956      26126.335      29.672866      1.2019331    
     16100   270.76212      1020.752       1512.7607      25937.514      29.601209      1.210683     
     16200   275.66825      971.94696      616.04984      25927.554      29.597419      1.2111481    
     16300   271.27421      1007.6127      1700.2921      25702.167      29.511407      1.2217689    
     16400   269.37864      1021.4005     -121.55198      25770.036      29.53736       1.2185511    
     16500   270.86728      1005.7187      855.55442      25646.146      29.48995       1.2244377    
     16600   266.36266      1044.794      -1361.618       25903.003      29.588074      1.212296     
     16700   278.19758      935.84978     -1073.7965      26002.012      29.625725      1.2076799    
     16800   263.15478      1069.0997      1088.7553      26015.444      29.630825      1.2070563    
     16900   269.93432      1005.3338     -1657.4723      26095.55       29.661207      1.2033511    
     17000   269.57547      1004.6083     -778.65279      25849.084      29.56753       1.2148248    
     17100   272.73639      974.37753      1492.7607      25699.46       29.510371      1.2218976    
     17200   273.3891       968.16934      310.44161      25986.241      29.619734      1.2084128    
     17300   268.94388      1007.6743     -459.87651      26112.139      29.667491      1.2025866    
     17400   268.4099       1012.2364      682.57952      25973.168      29.614766      1.2090211    
     17500   273.46396      968.40078     -248.28854      25821.461      29.556995      1.2161243    
     17600   276.37421      944.50497      939.39245      26013.683      29.630157      1.2071381    
     17700   268.56173      1015.9041     -3038.3998      26135.008      29.676149      1.2015342    
     17800   272.24769      980.41273      1167.8634      25968.01       29.612806      1.2092612    
     17900   273.47143      970.7747       711.11773      25889.167      29.582805      1.2129439    
     18000   269.33972      1012.031       1011.5047      25964.123      29.611328      1.2094422    
     18100   267.30076      1034.6002     -2728.1444      26006.343      29.62737       1.2074788    
     18200   271.97341      998.47756      252.08619      25929.385      29.598116      1.2110625    
     18300   272.57367      997.84922     -1848.6648      26144.767      29.679842      1.2010858    
     18400   270.94292      1018.0011     -337.20379      25950.702      29.606225      1.2100677    
     18500   273.98939      1001.1294      573.45242      25918.524      29.593983      1.2115701    
     18600   271.82591      1033.2716     -533.82249      26164.858      29.687443      1.2001635    
     18700   273.32165      1032.2309      2069.2904      25913.741      29.592163      1.2117937    
     18800   273.66563      1041.1793      238.60423      26034.115      29.637912      1.2061907    
     18900   277.77069      1014.5298     -754.24179      25983.768      29.618794      1.2085278    
     19000   278.78221      1014.31        285.56599      25924.275      29.596172      1.2113013    
     19100   276.27232      1047.4019     -891.42604      25942.242      29.603007      1.2104624    
     19200   280.92149      1011.6936      1334.8571      25979.192      29.617056      1.2087407    
     19300   276.68466      1057.8043      240.66599      25963.85       29.611224      1.209455     
     19400   275.37069      1074.4401      1152.3495      25968.395      29.612952      1.2092433    
     19500   274.855        1083.682       270.49066      25938.737      29.601674      1.2106259    
     19600   275.58825      1079.5854      598.03064      25860.046      29.571709      1.2143098    
     19700   277.8517       1060.7955     -3039.7714      26012.052      29.629537      1.2072138    
     19800   279.32067      1045.7068      1207.8646      25758.366      29.5329        1.2191033    
     19900   279.984        1039.7278     -173.78944      25886.171      29.581664      1.2130843    
     20000   281.91761      1021.5758      1197.1398      25858.38       29.571074      1.2143881    
     20100   281.07002      1027.2581      126.53805      26030.973      29.63672       1.2063363    
     20200   272.78898      1097.7111     -1786.0744      26014.413      29.630434      1.2071042    
     20300   277.89868      1046.7923      723.66689      25853.807      29.569331      1.2146028    
     20400   278.96934      1032.3495     -1402.0111      25917.259      29.593502      1.2116292    
     20500   276.23275      1049.9931     -1446.6724      25726.267      29.520628      1.2206243    
     20600   280.15757      1009.6305     -1133.9387      25923.617      29.595921      1.211332     
     20700   268.08815      1112.0892      57.350192      26071.266      29.652003      1.2044719    
     20800   273.41025      1055.6096     -1095.527       26288.212      29.734024      1.1945319    
     20900   270.42639      1074.079       1233.6052      26165.754      29.687782      1.2001224    
     21000   277.03232      1007.6944     -175.54002      26046.319      29.642542      1.2056256    
     21100   272.3245       1044.3645      482.9447       26145.428      29.680093      1.2010554    
     21200   278.1601       985.8112      -1035.3055      26136.126      29.676572      1.2014829    
     21300   268.23593      1069.7132      369.07043      26049.066      29.643585      1.2054984    
     21400   271.24104      1038.8767      827.96392      26106.163      29.665227      1.2028618    
     21500   269.14264      1053.0604      1925.7009      26103.046      29.664047      1.2030055    
     21600   273.53537      1009.1537     -182.48711      26133.93       29.675741      1.2015838    
     21700   267.82964      1057.4742      1607.5286      26042.619      29.641139      1.2057968    
     21800   271.06473      1026.1382      1106.8808      25856.999      29.570548      1.2144529    
     21900   271.38327      1021.8054     -331.62152      25794.113      29.546556      1.2174137    
     22000   269.90596      1033.287       1644.6984      25780.717      29.54144       1.2180463    
     22100   273.72756      996.86936     -1442.226       25991.497      29.621731      1.2081685    
     22200   274.22029      990.50906     -1426.0849      26059.655      29.647601      1.2050086    
     22300   276.72411      968.57497     -28.503623      26027.958      29.635576      1.206476     
     22400   271.09386      1018.7016      1319.4362      25867.465      29.574537      1.2139615    
     22500   266.62646      1059.3108      441.72783      25960.679      29.610019      1.2096027    
     22600   278.22595      954.40177      1107.6497      25892.46       29.58406       1.2127896    
     22700   268.73405      1042.3592      397.92178      25996.633      29.623682      1.2079298    
     22800   267.99964      1051.2324     -1732.5137      26027.675      29.635468      1.2064891    
     22900   270.11487      1033.3539     -352.57056      25997.042      29.623837      1.2079108    
     23000   268.74309      1044.6292     -909.08055      25811.252      29.553099      1.2166054    
     23100   280.98521      935.75528      425.03451      25801.849      29.54951       1.2170487    
     23200   273.19701      1009.0114      59.67326       25849.174      29.567565      1.2148205    
     23300   269.26127      1049.2001     -464.91354      25897.98       29.586162      1.2125311    
     23400   274.15435      1006.6464      917.6482       25882.903      29.580419      1.2132375    
     23500   267.98892      1064.6553     -395.78586      26038.513      29.639581      1.205987     
     23600   272.47385      1025.1822     -608.98532      25970.392      29.613711      1.2091503    
     23700   275.16927      1000.9457      861.40408      25886.131      29.581649      1.2130862    
     23800   266.8546       1078.8215      698.17237      25955.602      29.608089      1.2098393    
     23900   274.47653      1011.1321     -585.43752      26078.395      29.654706      1.2041427    
     24000   276.0302       999.75205      200.35611      25979.83       29.617298      1.208711     
     24100   275.20665      1009.6436      840.47578      25876.867      29.57812       1.2135205    
     24200   269.28356      1066.5931     -959.5556       25763.074      29.5347        1.2188805    
     24300   268.95875      1072.0752      1395.3321      25839.634      29.563927      1.215269     
     24400   272.23608      1043.7464     -274.16749      25951.432      29.606503      1.2100337    
     24500   275.41855      1014.99        1727.7213      25993.621      29.622538      1.2080697    
     24600   280.64424      967.065       -799.06416      25826.654      29.558976      1.2158798    
     24700   277.87403      993.93781      1583.811       25777.728      29.540299      1.2181875    
     24800   272.18129      1046.5032      623.72747      25759.966      29.533512      1.2190275    
     24900   275.59251      1016.3957     -308.1397       25941.907      29.60288       1.210478     
     25000   272.2971       1044.0661     -854.07574      25974.915      29.61543       1.2089397    
     25100   271.03569      1054.6896     -37.357726      25740.664      29.526134      1.2199416    
     25200   273.73482      1030.7111      1917.1515      25884.308      29.580955      1.2131716    
     25300   272.36875      1040.4615      319.05015      25953.321      29.607221      1.2099456    
     25400   267.94885      1077.3945     -412.60106      25993.076      29.622331      1.2080951    
     25500   269.85605      1059.5757     -719.0019       26121.506      29.671038      1.2021553    
     25600   274.82816      1013.2023     -690.84875      26013.418      29.630056      1.2071504    
     25700   272.39075      1034.5496     -105.67805      25989.55       29.620991      1.208259     
     25800   274.1298       1017.1872      812.85781      25910.481      29.590922      1.2119461    
     25900   275.05881      1007.7485     -573.20677      25922.206      29.595384      1.2113979    
     26000   275.04313      1003.6842      243.90786      25894.789      29.584947      1.2126806    
     26100   278.39589      970.01619     -2091.0351      26252.261      29.720463      1.1961677    
     26200   272.07345      1022.3867      550.00098      26245.952      29.718082      1.1964553    
     26300   269.13122      1043.2154     -925.46294      26197.404      29.699747      1.1986725    
     26400   272.60316      1002.2588     -754.77622      26216.915      29.707118      1.1977804    
     26500   268.9943       1024.045       919.2003       26088.785      29.658643      1.2036631    
     26600   272.34611      982.46151      1255.9072      25891.792      29.583805      1.2128209    
     26700   266.45743      1025.2396     -1195.2017      25800.809      29.549112      1.2170978    
     26800   268.98656      992.47143      719.83429      25815.938      29.554887      1.2163845    
     26900   264.38317      1024.3756      90.653255      25893.931      29.58462       1.2127208    
     27000   268.72187      976.97618     -2368.2155      26008.79       29.628299      1.2073652    
     27100   268.47039      970.35786      2616.0442      25956.616      29.608474      1.209792     
     27200   265.95896      987.75586      184.13716      25987.876      29.620355      1.2083368    
     27300   265.85625      983.92756      1344.8271      25830.657      29.560503      1.2156914    
     27400   268.16808      959.42615      179.03845      25958.915      29.609348      1.2096849    
     27500   262.78203      1005.9683      1891.2421      26087.997      29.658345      1.2036994    
     27600   265.44845      979.90231      305.98098      26079.047      29.654953      1.2041125    
     27700   267.19713      963.82877     -50.296074      25881.605      29.579925      1.2132983    
     27800   266.16001      973.76975     -1828.2441      26017.608      29.631647      1.206956     
     27900   261.89749      1014.5177     -522.85389      25871.047      29.575902      1.2137935    
     28000   269.55732      950.22528     -2846.554       26186.62       29.695671      1.1991661    
     28100   263.67004      1006.7921     -1375.3645      26211.248      29.704978      1.1980394    
     28200   267.9209       973.32398      572.65529      26067.761      29.650674      1.2046339    
     28300   265.00073      1007.8167     -1577.0836      26096.96       29.661741      1.2032861    
     28400   267.0133       998.89493     -804.4072       26192.346      29.697836      1.1989039    
     28500   276.7997       918.50965      1770.405       26129.49       29.674061      1.201788     
     28600   263.67013      1045.5032      150.66551      26120.555      29.670678      1.2021991    
     28700   266.42134      1030.2117     -996.02933      26172.674      29.690399      1.1998051    
     28800   268.60821      1021.2721     -1044.5868      26367.15       29.763756      1.1909557    
     28900   270.92929      1009.1155      1154.8735      25979.738      29.617263      1.2087153    
     29000   274.21052      989.16636     -3991.6299      26035.349      29.63838       1.2061335    
     29100   274.90243      991.44478      537.98556      25990.023      29.621171      1.208237     
     29200   277.03972      977.8418      -801.06504      26121.058      29.670868      1.2021759    
     29300   274.3217       1008.413       1257.9366      26000.359      29.625097      1.2077567    
     29400   265.9235       1090.1506      177.69822      26109.66       29.666552      1.2027007    
     29500   272.52408      1035.3665      30.154155      26121.929      29.671198      1.2021358    
     29600   273.77593      1029.2689     -2447.2232      26123.01       29.671607      1.2020861    
     29700   270.7628       1060.3811      622.5296       26103.874      29.66436       1.2029673    
     29800   272.61352      1048.8506      482.81299      26160.759      29.685893      1.2003516    
     29900   271.99158      1058.4284      278.32668      26220.503      29.708474      1.1976165    
     30000   273.65221      1046.5854      371.20781      26278.384      29.730318      1.1949786    
     30100   271.57488      1067.7814      240.16092      26222.754      29.709324      1.1975137    
     30200   271.79103      1068.7818     -102.26243      26125.427      29.672523      1.2019749    
     30300   273.66551      1053.4847     -2536.2341      26226.914      29.710895      1.1973238    
     30400   269.05156      1096.6638      1196.0819      26237.166      29.714765      1.1968559    
     30500   277.8186       1020.5966     -410.83017      26323.283      29.74724       1.1929404    
     30600   276.64875      1033.0397     -1652.6864      26169.123      29.689056      1.1999679    
     30700   265.10724      1137.9207     -1188.8138      26028.357      29.635727      1.2064576    
     30800   275.60777      1046.3945     -733.01325      26164.033      29.687131      1.2002014    
     30900   277.77208      1027.9836     -1854.7024      26106.267      29.665267      1.202857     
     31000   275.09012      1054.6211      222.19964      26232.86       29.71314       1.1970524    
     31100   269.23708      1109.0701      2068.4776      26069.327      29.651268      1.2045615    
     31200   275.44738      1056.6443     -2458.8987      26243.938      29.717322      1.1965471    
     31300   272.53912      1083.7373     -184.09608      26130.894      29.674592      1.2017234    
     31400   278.69549      1028.9268      1169.1385      26221.108      29.708702      1.1975889    
     31500   275.73429      1054.1887     -1059.0963      26282.897      29.73202       1.1947734    
     31600   279.45908      1018.9861     -123.95487      26128.443      29.673664      1.2018361    
     31700   276.05618      1047.0821      1568.3284      26015.814      29.630966      1.2070392    
     31800   275.59128      1052.2168     -1470.3599      26105.107      29.664827      1.2029105    
     31900   270.32844      1095.8702      1262.4594      26285.267      29.732913      1.1946657    
     32000   277.20807      1027.2556      488.80699      26300.16       29.738528      1.1939892    
     32100   274.38862      1047.9643     -2199.6046      26228.411      29.71146       1.1972554    
     32200   276.19066      1026.3405      1713.1309      25894.847      29.584969      1.2126779    
     32300   276.0515       1022.0791     -318.05332      26098.472      29.662314      1.2032163    
     32400   278.0193       995.60146     -754.9094       26030.981      29.636723      1.2063359    
     32500   277.02151      994.43412     -323.52097      25995.733      29.62334       1.2079716    
     32600   269.93157      1048.3435      537.01263      25996.101      29.62348       1.2079545    
     32700   270.6238       1028.3129     -1719.1914      26026.053      29.634853      1.2065643    
     32800   275.94818      970.71799      1874.239       25960.278      29.609866      1.2096214    
     32900   273.43004      984.75706      398.6272       26032.061      29.637133      1.2062859    
     33000   270.60553      1000.5147     -336.37365      26147.897      29.681027      1.200942     
     33100   266.89281      1026.3523     -872.17192      26108.852      29.666246      1.202738     
     33200   267.60182      1012.1591     -45.526035      26012.161      29.629579      1.2072087    
     33300   271.08829      975.9152       3168.702       26174.092      29.690935      1.1997401    
     33400   267.17983      1004.8134     -411.04741      26096.71       29.661646      1.2032976    
     33500   271.00715      964.94505     -325.91751      26109.51       29.666495      1.2027077    
     33600   265.26162      1011.4749      2631.6248      26025.176      29.63452       1.206605     
     33700   266.51599      999.97403     -958.24042      25936.865      29.600962      1.2107133    
     33800   270.28263      963.95163      161.91188      26057.57       29.64681       1.205105     
     33900   269.54432      973.5844       1496.3086      26078.66       29.654806      1.2041304    
     34000   262.51897      1035.7092      759.88488      26022.566      29.633529      1.206726     
     34100   268.21973      987.58576     -806.51771      26265.054      29.72529       1.1955851    
     34200   267.27703      996.83135      1758.2304      26077.456      29.65435       1.204186     
     34300   272.33762      954.58223     -1069.9988      26332.38       29.750667      1.1925283    
     34400   273.19198      949.92008     -1058.7109      26345.346      29.755549      1.1919413    
     34500   270.41316      979.9431       720.86884      26140.496      29.678226      1.201282     
     34600   267.18152      1011.7517     -794.08094      26176.849      29.691977      1.1996137    
     34700   267.97191      1009.8657     -214.77365      26313.969      29.743732      1.1933626    
     34800   274.45741      955.1562      -296.28632      26319.529      29.745826      1.1931105    
     34900   268.44961      1013.9576     -2086.2696      26282.166      29.731744      1.1948067    
     35000   273.26044      974.0361      -815.72912      26181.193      29.69362       1.1994147    
     35100   268.2074       1025.6546      1612.4733      26040.856      29.64047       1.2058784    
     35200   274.7247       973.26966     -2680.3095      26093.341      29.66037       1.2034529    
     35300   268.71289      1031.1541      1094.8082      26217.177      29.707218      1.1977684    
     35400   272.90116      997.28438      804.54656      26004.274      29.626584      1.2075749    
     35500   272.95052      999.69077     -1216.9193      26044.028      29.641673      1.2057316    
     35600   270.18954      1027.2324      686.79274      25926.691      29.597091      1.2111884    
     35700   269.60948      1040.2218     -1373.9817      26005.548      29.627068      1.2075157    
     35800   270.97198      1032.703      -452.77236      26038.741      29.639667      1.2059764    
     35900   272.06085      1024.8796      2197.0736      26143.875      29.679505      1.2011267    
     36000   268.14045      1062.9272      215.17829      26049.609      29.643791      1.2054733    
     36100   275.10967      1002.8399      844.72387      25992.229      29.622009      1.2081344    
     36200   271.54764      1038.1824      759.33227      26086.533      29.65779       1.203767     
     36300   273.0192       1026.9295     -2442.686       26012.856      29.629843      1.2071764    
     36400   274.03657      1019.218      -1765.9736      25910.443      29.590907      1.2119479    
     36500   271.88744      1037.0577      2105.9859      25949.377      29.605721      1.2101295    
     36600   268.97518      1067.4407     -2875.6232      26125.283      29.672468      1.2019815    
     36700   273.30052      1028.8402      1675.7344      25906.797      29.589519      1.2121185    
     36800   276.86371      998.376        2825.1888      25871.938      29.576242      1.2137516    
     36900   276.26501      1004.0054     -1153.9473      25965.714      29.611933      1.2093681    
     37000   274.25257      1023.9004      1209.8641      26034.37       29.638009      1.2061789    
     37100   278.59853      984.13163     -880.34541      26050.629      29.644177      1.2054261    
     37200   270.07781      1060.3127      1006.3779      25922.87       29.595637      1.2113669    
     37300   272.41666      1038.2562      1613.5964      25836.455      29.562714      1.2154186    
     37400   279.65377      974.26078      1873.0711      25853.334      29.569151      1.2146251    
     37500   275.85561      1010.1905     -2087.9881      26032.597      29.637336      1.2062611    
     37600   279.08831      980.58769      376.72636      26191.104      29.697366      1.1989608    
     37700   274.64302      1019.3816      300.47574      26172.332      29.69027       1.1998207    
     37800   274.60392      1019.6021     -648.81807      26055.668      29.646089      1.205193     
     37900   267.96443      1078.8127      1375.6729      26006.351      29.627373      1.2074784    
     38000   278.72579      979.28772     -597.2776       25937.592      29.601239      1.2106794    
     38100   274.9654       1013.0565      1991.9466      25906.194      29.58929       1.2121467    
     38200   270.1539       1055.8055     -834.2574       25992.554      29.622132      1.2081194    
     38300   277.20059      991.9564      -373.25569      25994.104      29.622721      1.2080473    
     38400   273.7008       1020.4603     -1436.0985      26033.81       29.637796      1.2062048    
     38500   270.76178      1043.875       1241.0416      25913.273      29.591984      1.2118156    
     38600   273.38061      1019.218      -2079.704       26196.651      29.699463      1.1987069    
     38700   270.3193       1044.9211     -229.1002       26061.819      29.648421      1.2049085    
     38800   272.46642      1022.825      -290.07919      25993.578      29.622521      1.2080718    
     38900   272.30163      1017.4533      2344.9912      25904.259      29.588553      1.2122372    
     39000   273.68018      1000.1848      648.19876      25899.509      29.586744      1.2124596    
     39100   266.01131      1065.5359     -946.41711      26159.725      29.685502      1.200399     
     39200   271.00517      1013.958      -558.65894      26157.116      29.684515      1.2005187    
     39300   273.20108      986.7253      -477.15983      26158.484      29.685032      1.2004559    
     39400   273.15476      978.59959      366.5557       26130.009      29.674257      1.2017641    
     39500   270.39308      995.30101      417.28997      26062.603      29.648719      1.2048723    
     39600   266.59007      1020.5304      226.04555      26153.261      29.683056      1.2006957    
     39700   267.36861      1004.3782     -129.98314      26190.985      29.697321      1.1989663    
     39800   273.90751      932.62646      1305.6443      25888.416      29.582519      1.2129791    
     39900   268.02108      975.90405     -2400.8551      26025.939      29.634809      1.2065696    
     40000   269.99988      949.4101       1748.0277      25902.371      29.587834      1.2123256    
     40100   265.83873      980.76424     -343.32195      26235.131      29.713997      1.1969488    
     40200   267.77141      956.33054      76.260919      26064.745      29.649531      1.2047732    
     40300   270.9743       920.17135      706.8326       25918.39       29.593932      1.2115763    
     40400   269.91072      923.46245     -1430.1481      25829.923      29.560223      1.2157259    
     40500   269.77167      920.89812      2451.5875      25801.149      29.549242      1.2170817    
     40600   267.22309      942.9863      -782.08422      26008.993      29.628376      1.2073558    
     40700   262.26743      986.09349      767.1734       25922.922      29.595657      1.2113645    
     40800   264.87972      963.09697     -2921.9343      26047.825      29.643114      1.2055558    
     40900   272.36644      897.14137     -1733.7068      26067.055      29.650407      1.2046665    
     41000   269.1877       927.20152      1136.1796      26047.078      29.642831      1.2055904    
     41100   264.52763      972.33602     -216.85971      25828.16       29.55955       1.2158089    
     41200   270.02831      927.73685     -623.81674      25891.626      29.583742      1.2128287    
     41300   265.07618      981.03466      1152.6758      25965.335      29.611789      1.2093858    
     41400   266.06692      978.50012     -1710.2659      25872.259      29.576364      1.2137366    
     41500   269.26217      957.75681     -118.02006      25810.46       29.552796      1.2166427    
     41600   268.7099       971.91952     -784.47283      25896.729      29.585686      1.2125897    
     41700   274.16048      932.61913     -1773.1239      26085.012      29.657214      1.2038372    
     41800   271.80451      962.945       -361.05643      25921.904      29.59527       1.2114121    
     41900   271.49704      975.59897      402.09027      25927.271      29.597312      1.2111613    
     42000   271.01538      989.31728      1266.8706      25993.943      29.62266       1.2080548    
     42100   269.7724       1007.0725      380.92365      25730.452      29.522229      1.2204258    
     42200   274.42655      970.65143      439.47974      25979.977      29.617354      1.2087042    
     42300   269.25918      1021.8301      604.81967      25934.296      29.599985      1.2108332    
     42400   278.3342       945.40154      1029.7706      25892.498      29.584074      1.2127879    
     42500   269.32479      1032.5976     -1061.1199      26205.179      29.702685      1.1983169    
     42600   269.03919      1035.418       145.87489      26174.289      29.691009      1.1997311    
     42700   273.27415      999.17335      1011.1309      26050.34       29.644068      1.2054395    
     42800   271.7888       1015.5332     -1356.7115      26021.293      29.633046      1.206785     
     42900   271.88005      1016.4466     -431.61966      25718.186      29.517537      1.2210079    
     43000   273.85867      999.76479     -440.17092      25860.666      29.571946      1.2142807    
     43100   275.65593      987.81229     -1112.3196      26152.165      29.682642      1.200746     
     43200   270.18629      1039.7363      317.79573      25930.481      29.598533      1.2110114    
     43300   272.09423      1024.9919     -795.57153      26101.814      29.66358       1.2030622    
     43400   274.18415      1009.4355      1121.0897      26005.735      29.627139      1.207507     
     43500   269.69638      1053.7651     -456.09723      26100.076      29.662922      1.2031424    
     43600   269.09708      1064.4964     -2536.3985      26128.249      29.673591      1.2018451    
     43700   269.6985       1060.4758     -1760.7242      25957.734      29.608899      1.2097399    
     43800   270.20012      1057.4041     -399.09917      25867.319      29.574481      1.2139684    
     43900   273.99387      1024.9647      499.92125      25806.047      29.551112      1.2168507    
     44000   274.66524      1021.0677      683.99567      25956.932      29.608594      1.2097773    
     44100   277.21485      1002.1067     -654.84353      25974.02       29.61509       1.2089814    
     44200   273.2041       1042.2926      1052.9655      25914.421      29.592422      1.2117619    
     44300   274.79595      1031.6004      998.21084      26085.347      29.657341      1.2038217    
     44400   273.98102      1040.6747     -1084.7939      26253.107      29.720782      1.1961292    
     44500   274.91912      1035.0407     -2230.2182      26279.067      29.730575      1.1949476    
     44600   274.67121      1039.4154     -2057.0915      26155.395      29.683864      1.2005977    
     44700   272.87124      1058.1395     -294.6804       25937.121      29.601059      1.2107013    
     44800   278.95331      1005.0107      2517.9107      25938.918      29.601743      1.2106175    
     44900   273.41094      1057.6817      3.5950758      26022.526      29.633514      1.2067279    
     45000   276.9279       1029.0581     -480.69844      26086.105      29.657628      1.2037868    
     45100   275.35683      1045.9269      86.499032      25987.422      29.620183      1.2083579    
     45200   273.43207      1066.6135     -512.76817      26183.607      29.694533      1.1993041    
     45300   273.66359      1065.223      -199.71738      25972.947      29.614682      1.2090314    
     45400   276.06811      1043.9635     -1105.4366      25978.964      29.616969      1.2087514    
     45500   276.16546      1043.6003      1604.7903      26090.301      29.659218      1.2035931    
     45600   274.09095      1063.8567      627.92116      26104.864      29.664736      1.2029217    
     45700   270.76803      1097.0313     -2154.6446      26286.762      29.733477      1.1945978    
     45800   276.76025      1043.2294     -978.37721      26290.43       29.73486       1.1944311    
     45900   273.52893      1070.5444     -785.47883      26040.348      29.640277      1.205902     
     46000   275.39565      1051.9423      2333.4429      25931.495      29.598919      1.210964     
     46100   277.11574      1034.9798     -303.49788      25884.008      29.580841      1.2131856    
     46200   277.15626      1032.7054      16.496437      25888.297      29.582474      1.2129846    
     46300   276.23811      1038.0215      851.94005      25878.958      29.578917      1.2134224    
     46400   276.79645      1028.9957      3132.5494      25937.78       29.60131       1.2106706    
     46500   278.47505      1012.2712     -1758.1829      26166.73       29.688151      1.2000776    
     46600   274.57194      1039.5276      1965.9359      25910.684      29.590999      1.2119366    
     46700   277.46962      1008.5173     -2086.3243      25996.964      29.623807      1.2079144    
     46800   275.83037      1016.8018      1333.7593      25935.16       29.600313      1.2107929    
     46900   271.8761       1045.8213     -1190.5442      26048.505      29.643372      1.2055244    
     47000   275.22977      1006.4058      399.65799      26019.387      29.632322      1.2068734    
     47100   267.61129      1067.3506      421.8583       26011.294      29.62925       1.2072489    
     47200   269.64006      1039.9335      311.00106      25927.124      29.597256      1.2111682    
     47300   271.01683      1019.3638     -2338.2057      25863.727      29.573113      1.214137     
     47400   269.80505      1023.6139      431.70861      25874.268      29.57713       1.2136423    
     47500   272.13869      997.78079      649.7273       26000.09       29.624995      1.2077692    
     47600   273.06997      982.26465     -2419.4118      25893.616      29.5845        1.2127355    
     47700   266.99498      1030.7116      1860.9845      25881.983      29.580069      1.2132806    
     47800   275.44391      951.40781      207.3045       26027.44       29.635379      1.2065       
     47900   265.86751      1033.6671     -1656.3894      26191.065      29.697351      1.1989626    
     48000   268.12011      1010.4394      507.98904      26044.952      29.642024      1.2056888    
     48100   272.62158      967.38787      228.40689      26121.652      29.671093      1.2021486    
     48200   265.20801      1031.596      -68.910744      26033.893      29.637828      1.206201     
     48300   269.26735      993.31769     -1158.3899      26126.911      29.673084      1.2019066    
     48400   269.11003      994.83616      1021.7053      26139.594      29.677885      1.2013235    
     48500   267.60014      1009.3624      57.800731      26082.298      29.656185      1.2039625    
     48600   268.97791      998.37189     -1110.6337      25976.479      29.616024      1.208867     
     48700   269.93847      992.71969      2761.7887      25918.168      29.593847      1.2115867    
     48800   266.11859      1032.2364     -2068.2648      26112.014      29.667443      1.2025923    
     48900   272.60848      977.68303     -424.32953      26090.384      29.65925       1.2035893    
     49000   270.5015       1002.1357      882.10079      26031.877      29.637063      1.2062944    
     49100   271.66123      994.59092     -13.626477      26086.084      29.65762       1.2037877    
     49200   268.83347      1026.8444     -1491.992       26072.369      29.652421      1.204421     
     49300   271.39416      1012.266       263.86902      26089.848      29.659046      1.2036141    
     49400   274.63558      989.60797      1277.158       25935.14       29.600306      1.2107938    
     49500   272.28666      1017.8019     -1704.8845      25905.615      29.589069      1.2121738    
     49600   270.38444      1044.9217      630.78197      26109.194      29.666375      1.2027222    
     49700   275.38316      1010.557       1402.5088      26072.014      29.652287      1.2044373    
     49800   267.90655      1086.4723     -1562.193       26231.835      29.712753      1.1970991    
     49900   270.70198      1070.9882     -2424.6795      26199.252      29.700446      1.1985879    
     50000   280.75222      989.32237      1209.114       26301.98       29.739214      1.1939066    
     50100   281.27332      992.02438     -1266.8602      26192.216      29.697787      1.1989099    
     50200   274.58596      1056.3459     -1329.3284      25956.712      29.60851       1.2097876    
     50300   280.15839      1010.53        56.480744      25889.846      29.583064      1.2129121    
     50400   274.72911      1063.234       1155.2221      26011.298      29.629251      1.2072488    
     50500   272.50585      1087.6122     -1219.9611      26162.36       29.686498      1.2002781    
     50600   278.81873      1032.3306      215.60027      26170.761      29.689676      1.1998928    
     50700   274.51069      1071.1065      503.90275      26065.488      29.649813      1.2047389    
     50800   274.67503      1071.2214     -647.87542      26079.387      29.655082      1.2040968    
     50900   278.71398      1034.2951     -1619.7639      26188.925      29.696543      1.1990606    
     51000   279.9802       1019.1971      381.6781       26104.556      29.664619      1.2029359    
     51100   279.47786      1023.9961     -1623.3059      26293.76       29.736115      1.1942798    
     51200   276.41031      1049.4108     -880.15731      25983.528      29.618703      1.208539     
     51300   274.19987      1067.5783     -908.50998      25867.994      29.574739      1.2139367    
     51400   272.15085      1085.1955      1524.6376      25887.888      29.582319      1.2130038    
     51500   276.99576      1038.4154      496.2304       25943.77       29.603589      1.210391     
     51600   276.28511      1042.5447     -2656.9773      26113.49       29.668002      1.2025243    
     51700   276.09789      1044.0839      1461.8676      26077.08       29.654207      1.2042034    
     51800   275.40414      1048.284      -582.27237      26119.078      29.670119      1.202267     
     51900   276.34494      1037.8381      1749.4087      25944.986      29.604051      1.2103344    
     52000   270.64571      1084.8204     -1517.0633      26108.619      29.666157      1.2027487    
     52100   272.21709      1066.3606      1797.1571      26107.717      29.665816      1.2027902    
     52200   273.89203      1046.91        533.45711      26250.061      29.719633      1.196268     
     52300   275.93486      1023.6032     -367.14683      26272.354      29.728043      1.1952529    
     52400   277.6883       1004.9682     -691.482        26137.045      29.67692       1.2014406    
     52500   269.19376      1077.2419      56.960496      25957.242      29.608712      1.2097629    
     52600   270.0581       1064.8545      39.318416      26049.603      29.643788      1.2054736    
     52700   275.08401      1014.3251     -332.27645      25987.884      29.620358      1.2083364    
     52800   273.00069      1028.9979      193.24141      25874.14       29.577081      1.2136483    
     52900   271.37939      1042.9697      1590.5604      26138.524      29.67748       1.2013726    
     53000   267.13582      1078.8627      776.21894      26224.765      29.710083      1.1974219    
     53100   272.1592       1028.4849     -1857.1632      26181.341      29.693676      1.1994079    
     53200   270.91701      1036.5098      1474.3594      26077.391      29.654325      1.204189     
     53300   271.32848      1031.3979      735.58698      26020.728      29.632831      1.2068112    
     53400   270.97515      1032.8351     -1399.5506      26295.235      29.736671      1.1942128    
     53500   270.51661      1035.3196      746.05465      26215.465      29.706571      1.1978466    
     53600   271.46075      1023.6096      1334.5556      26067.989      29.650761      1.2046233    
     53700   278.47218      958.25475      561.76486      25878.492      29.578739      1.2134443    
     53800   273.70214      1000.9017     -2200.5306      26246.536      29.718302      1.1964286    
     53900   272.84083      1006.6441     -1121.2422      25961.19       29.610213      1.2095789    
     54000   277.05845      965.05892      1189.6871      25755.456      29.531788      1.219241     
     54100   268.14877      1045.0573      821.77025      25663.61       29.496642      1.2236044    
     54200   272.58723      1002.9549      28.064073      25671.895      29.499816      1.2232095    
     54300   271.21896      1012.7553      827.33689      25722.349      29.519129      1.2208103    
     54400   270.32304      1018.3649     -1409.0812      25898.126      29.586218      1.2125243    
     54500   271.72782      1002.7813     -189.53884      25953.464      29.607275      1.209939     
     54600   276.58414      955.36064     -1003.9011      25895.076      29.585056      1.2126671    
     54700   267.96831      1029.5021      1742.3336      25796.274      29.547381      1.2173118    
     54800   272.46761      984.54132     -634.24633      25862.372      29.572596      1.2142006    
     54900   271.55793      987.61835      712.03107      25874.467      29.577206      1.213633     
     55000   269.66774      998.74524      827.10925      25986.929      29.619995      1.2083809    
     55100   271.14722      977.11607      1721.7185      25948.021      29.605205      1.2101928    
     55200   266.46214      1011.9751     -4177.1212      25966.948      29.612402      1.2093107    
     55300   267.36168      993.70268      1593.1008      25709.557      29.514235      1.2214177    
     55400   271.43179      947.75306      569.71633      25911.252      29.591215      1.2119101    
     55500   265.81525      992.18751     -195.862        25970.417      29.613721      1.2091491    
     55600   268.56582      957.51791      540.87774      25947.837      29.605135      1.2102014    
     55700   265.633        976.5391       659.16019      25856.3        29.570282      1.2144857    
     55800   270.68287      923.86882     -230.4799       25796.125      29.547324      1.2173188    
     55900   263.07916      988.54815     -2887.9785      25887.279      29.582086      1.2130324    
     56000   265.77414      959.68458      973.91486      25904.66       29.588706      1.2122185    
     56100   270.06127      917.3978      -1086.5675      26030.912      29.636697      1.2063391    
     56200   264.96937      960.87844     -275.65124      26025.154      29.634511      1.206606     
     56300   262.39707      982.94807     -538.79564      26077.807      29.654483      1.2041698    
     56400   264.07824      967.10789      748.64291      25897.262      29.585889      1.2125647    
     56500   265.95188      951.77696     -1647.6965      25923.302      29.595801      1.2113468    
     56600   267.24682      943.17483     -826.53056      25940.511      29.602349      1.2105431    
     56700   271.49529      909.29162      962.19591      26034.592      29.638093      1.2061686    
     56800   265.52007      966.65213     -1026.7371      25858.42       29.57109       1.2143862    
     56900   265.78847      972.42985     -730.00209      25954.404      29.607633      1.2098951    
     57000   264.34541      993.77688      3444.9695      25818.555      29.555885      1.2162612    
     57100   266.03938      986.97421     -1798.1689      26040.322      29.640267      1.2059032    
     57200   272.96769      933.81873      305.17377      25857.456      29.570722      1.2144314    
     57300   272.61422      946.43002      1258.7755      25582.91       29.465692      1.2274642    
     57400   268.361        996.96544      729.60137      25786.769      29.543752      1.2177605    
     57500   272.50775      971.54064      216.09724      25805.513      29.550908      1.2168759    
     57600   267.08477      1029.1229     -642.89011      25754.545      29.53144       1.2192841    
     57700   270.49611      1008.1942     -1746.6127      26062.266      29.648591      1.2048879    
     57800   272.04313      1000.2868     -922.80604      25860.439      29.571859      1.2142913    
     57900   270.77943      1017.6564     -961.70221      25816.373      29.555053      1.216364     
     58000   275.03049      983.08022     -902.37318      25782.682      29.542191      1.2179535    
     58100   271.20723      1022.8894      560.34253      25869.079      29.575152      1.2138858    
     58200   274.57502      995.59661     -625.49276      26151.389      29.682348      1.2007816    
     58300   274.05724      1003.8949     -34.07246       26101.723      29.663545      1.2030665    
     58400   275.09739      996.94486     -64.950915      25927.545      29.597416      1.2111485    
     58500   273.14805      1017.5802     -3050.449       26046.294      29.642533      1.2056267    
     58600   277.47486      979.22106      1364.0035      25957.054      29.60864       1.2097716    
     58700   275.08525      1002.5051     -1047.5288      25820.781      29.556735      1.2161564    
     58800   273.77319      1016.9037      1856.2498      25809.7        29.552506      1.2166785    
     58900   272.03143      1031.4827     -433.10593      25813.266      29.553867      1.2165104    
     59000   271.2667       1038.846      -6.3118322      25825.302      29.55846       1.2159434    
     59100   276.35622      992.16923      1233.758       25813.447      29.553936      1.2165019    
     59200   277.08758      985.73577     -383.86598      25727.211      29.520989      1.2205796    
     59300   269.08102      1060.8088     -1230.5788      25827.644      29.559354      1.2158332    
     59400   272.1707       1033.7227     -470.27181      25825.875      29.558679      1.2159165    
     59500   274.08763      1016.2268      1841.4609      25895.654      29.585276      1.2126401    
     59600   274.42834      1012.7372     -1400.4434      25793.164      29.546194      1.2174585    
     59700   274.21183      1014.1298     -167.85274      26023.496      29.633882      1.2066829    
     59800   275.69668      1002.9427      575.8534       26145.119      29.679976      1.2010696    
     59900   275.0813       1008.2462     -21.015209      25878.228      29.578638      1.2134566    
     60000   272.94083      1027.0752     -236.9243       25856.814      29.570478      1.2144616    
     60100   275.2453       1005.8613      2123.1316      25958.785      29.609299      1.209691     
     60200   272.38248      1031.1411     -325.33028      25926.993      29.597206      1.2111743    
     60300   273.66677      1020.0583     -1488.9296      26007.403      29.627772      1.2074295    
     60400   276.33514      995.84572     -2138.1263      25953.884      29.607435      1.2099194    
     60500   269.52296      1054.4983      464.62153      25919.072      29.594192      1.2115444    
     60600   267.93211      1069.1265     -503.00722      25911.941      29.591478      1.2118778    
     60700   275.86318      994.51018      2026.0474      25792.799      29.546054      1.2174758    
     60800   276.7498       983.69816      26.89288       25815.645      29.554775      1.2163983    
     60900   281.07449      941.07626      970.41728      25800.171      29.548869      1.2171279    
     61000   269.27727      1042.616      -1784.0466      25859.547      29.571519      1.2143332    
     61100   271.94867      1013.8944     -964.82848      25789.831      29.544921      1.2176159    
     61200   269.08462      1033.1821      423.76548      25723.362      29.519517      1.2207622    
     61300   267.68511      1037.0817      763.65623      25612.882      29.477195      1.2260279    
     61400   270.07163      1010.1783     -638.16648      25894.116      29.58469       1.2127121    
     61500   266.34527      1036.1779     -739.45134      25852.9        29.568985      1.2146455    
     61600   276.72573      933.49623     -320.98132      25798.091      29.548075      1.217226     
     61700   273.6606       954.31828      973.01724      25613.12       29.477286      1.2260165    
     61800   268.68177      994.88121      118.97904      25900.581      29.587152      1.2124094    
     61900   269.51718      980.69512      1405.1798      25739.167      29.525561      1.2200126    
     62000   267.43663      994.73229     -1559.3908      25931.059      29.598753      1.2109844    
     62100   268.49379      979.10391      1982.3708      25711.939      29.515146      1.2213045    
     62200   272.54914      937.44424     -132.57837      25680.847      29.503245      1.2227832    
     62300   268.38133      970.99728      221.33512      25694.019      29.508288      1.2221563    
     62400   268.36344      969.28669     -1411.271       25858.055      29.570951      1.2144033    
     62500   269.51206      956.03383     -1381.083       25938.135      29.601445      1.210654     
     62600   266.77774      978.80304      818.80091      26029.788      29.63627       1.2063912    
     62700   269.12196      955.42199      1034.1226      26019.373      29.632317      1.2068741    
     62800   266.695        977.49589     -273.85459      25891.951      29.583866      1.2128135    
     62900   263.13102      1011.5164     -670.91992      26067.813      29.650694      1.2046314    
     63000   269.2927       957.88349      514.49725      25928.621      29.597825      1.2110983    
     63100   264.96235      999.76954     -2509.8024      26078.128      29.654604      1.204155     
     63200   267.87538      978.43652      488.85088      26072.555      29.652492      1.2044124    
     63300   271.46908      950.03668     -1316.1158      26136.175      29.676591      1.2014806    
     63400   270.52356      965.60037      1436.0142      25912          29.5915        1.2118751    
     63500   270.35663      975.95375      520.975        25899.672      29.586806      1.2124519    
     63600   272.47764      968.63308      1454.7509      25975.374      29.615604      1.2089184    
     63700   265.84352      1040.9097      282.60159      25863.258      29.572934      1.214159     
     63800   271.34949      1004.3848      1478.8047      25727.457      29.521083      1.2205679    
     63900   270.87991      1019.2819      1953.7044      25661.634      29.495885      1.2236987    
     64000   270.85004      1031.8735      611.65466      25827.906      29.559453      1.2158209    
     64100   266.48083      1082.2765      474.85502      25937.985      29.601388      1.210661     
     64200   269.77427      1061.5774      1132.3399      25953.04       29.607114      1.2099587    
     64300   269.29149      1073.7152      680.99385      25926.799      29.597132      1.2111833    
     64400   268.78408      1083.048      -2220.9834      26006.941      29.627597      1.207451     
     64500   270.68578      1070.3952     -849.77227      25983.475      29.618683      1.2085415    
     64600   276.64889      1021.6734      1194.0485      25967.48       29.612604      1.2092859    
     64700   271.8536       1068.5449      9.6963173      25934.46       29.600047      1.2108256    
     64800   270.45888      1082.6197      845.60342      25990.557      29.621374      1.2082122    
     64900   279.83463      999.23619     -699.67718      26028.765      29.635882      1.2064386    
     65000   273.00906      1060.5502     -408.24396      25900.126      29.586979      1.2124307    
     65100   279.11912      1004.9119     -285.71219      26038.304      29.639502      1.2059967    
     65200   275.05734      1043.7183     -2795.7556      26095.458      29.661172      1.2033553    
     65300   273.08609      1060.2221      615.15135      25927.888      29.597547      1.2111325    
     65400   277.03839      1024.4485     -2271.2632      25948.242      29.60529       1.2101825    
     65500   271.88186      1068.4859     -337.4362       26015.563      29.63087       1.2070509    
     65600   274.17957      1045.6649     -1096.6833      26021.428      29.633097      1.2067788    
     65700   274.14084      1043.813       2230.5522      25726.951      29.520889      1.2205919    
     65800   274.95622      1032.8811     -1834.9458      25785.54       29.543282      1.2178185    
     65900   273.71735      1041.6239     -2364.1431      26002.766      29.626011      1.2076449    
     66000   273.7819       1037.4539      354.1603       26089.771      29.659017      1.2036176    
     66100   273.5856       1034.3878     -23.551941      25831.425      29.560796      1.2156552    
     66200   278.87786      985.09997     -1863.0415      25953.579      29.607319      1.2099336    
     66300   275.46483      1011.136      -439.87692      25965.706      29.61193       1.2093685    
     66400   277.51651      987.2891       1615.1557      25993.543      29.622508      1.2080734    
     66500   269.78564      1052.9056      594.55538      25943.6        29.603524      1.210399     
     66600   274.03733      1009.794      -1356.6269      26075.863      29.653746      1.2042595    
     66700   271.50409      1026.9486     -2257.5689      26070.225      29.651609      1.20452      
     66800   271.79701      1018.2979     -1435.4026      25935.28       29.600359      1.2107873    
     66900   270.9781       1019.0956      706.75057      25993.803      29.622607      1.2080613    
     67000   278.33121      947.75608      354.21865      26228.828      29.711617      1.1972364    
     67100   265.2063       1060.8964     -1703.8135      26063.103      29.648908      1.2048492    
     67200   270.66816      1007.6507     -1192.3104      25911.32       29.591241      1.2119069    
     67300   269.91494      1010.3185     -286.74101      25865.508      29.573791      1.2140534    
     67400   275.20684      958.56988     -886.27053      25954.499      29.607669      1.2098907    
     67500   267.50011      1023.0778      379.13813      25949.904      29.605922      1.2101049    
     67600   261.67026      1070.6535     -2173.1401      25897.974      29.58616       1.2125314    
     67700   275.02226      944.73335      1992.4285      25852.688      29.568904      1.2146554    
     67800   267.75546      1004.5311     -1634.2595      25873.439      29.576814      1.2136812    
     67900   269.5542       981.25379      1323.1629      25792.396      29.5459        1.2174948    
     68000   273.79876      939.84831      1423.9137      25815.946      29.55489       1.2163841    
     68100   266.7052       999.11802      624.65953      25859.216      29.571393      1.2143488    
     68200   274.0847       926.36554      1364.19        25684.619      29.504689      1.2226036    
     68300   264.25531      1008.6532     -592.40298      25912.159      29.59156       1.2118677    
     68400   270.69615      944.7831       2799.0692      25931.986      29.599106      1.2109411    
     68500   267.69652      965.85945     -868.3874       25897.093      29.585824      1.2125727    
     68600   267.90589      956.81334      1092.3225      25896.66       29.585659      1.212593     
     68700   268.55882      944.78644      377.13314      25880.132      29.579364      1.2133674    
     68800   266.68739      955.85091     -580.70484      25818.763      29.555965      1.2162514    
     68900   263.06107      981.5794      -1411.7462      25699.306      29.510312      1.2219049    
     69000   266.83285      938.76425      2779.059       25551.811      29.453748      1.2289582    
     69100   266.8225       931.47325     -1647.1233      25735.44       29.524136      1.2201893    
     69200   266.11134      929.98881      821.27512      25654.712      29.493233      1.2240288    
     69300   261.89187      961.39587     -125.4442       25761.878      29.534243      1.218937     
     69400   271.15211      873.36274     -970.21878      25751.01       29.530089      1.2194515    
     69500   266.18393      913.14283     -586.77787      25685.131      29.504885      1.2225792    
     69600   267.73254      895.99792      440.40811      25787.351      29.543974      1.217733     
     69700   264.69108      919.37959     -823.33378      25847.61       29.566969      1.214894     
     69800   263.86159      925.70884     -241.99155      25861.996      29.572453      1.2142182    
     69900   264.56844      922.53229     -1324.4417      26099.232      29.662602      1.2031813    
     70000   262.0175       949.05344     -709.22967      25907.23       29.589684      1.2120982    
     70100   262.37881      948.29135     -2873.1752      25844.559      29.565805      1.2150374    
     70200   269.09887      893.40263      950.60817      25820.13       29.556487      1.216187     
     70300   260.16397      980.73472      624.22029      25642.172      29.488427      1.2246274    
     70400   266.47674      933.52337      946.32624      25562.155      29.457722      1.2284609    
     70500   265.43723      954.56817      541.71823      25836.844      29.562863      1.2154003    
     70600   266.19604      960.09928      620.98248      25937.403      29.601167      1.2106882    
     70700   271.00957      927.25436      1501.4447      25752.733      29.530748      1.2193699    
     70800   265.33952      991.28073      89.876334      25738.975      29.525488      1.2200217    
     70900   270.98152      951.75194     -912.29325      25804.866      29.550661      1.2169064    
     71000   265.23128      1013.4683     -225.94803      25725.796      29.520448      1.2206467    
     71100   270.45762      975.90343      548.16296      25874.56       29.577241      1.2136287    
     71200   271.9024       969.22421      2189.8213      25826.968      29.559095      1.215865     
     71300   272.52664      971.99484     -109.98815      25893.881      29.584601      1.2127231    
     71400   272.31389      980.57468     -631.67486      25640.138      29.487647      1.2247246    
     71500   272.13233      988.33061      998.809        25696.679      29.509306      1.2220298    
     71600   272.92192      987.5905       228.22853      25859.193      29.571384      1.2143499    
     71700   274.03618      981.43731      805.68578      25879.157      29.578992      1.2134131    
     71800   267.5504       1046.4146     -2037.8506      25971.284      29.61405       1.2091088    
     71900   276.09941      972.33524     -675.81085      25893.552      29.584476      1.2127385    
     72000   274.61883      989.00933      1854.5451      25872.283      29.576373      1.2137355    
     72100   272.90092      1011.3099      1889.1474      25927.249      29.597304      1.2111623    
     72200   275.38857      991.17434     -2283.2451      25744.699      29.527676      1.2197504    
     72300   273.3234       1013.0949      1720.7955      25911.063      29.591143      1.2119189    
     72400   271.90983      1028.2559     -2780.3885      26183.04       29.694318      1.1993301    
     72500   273.73163      1013.2181     -993.75542      25715.214      29.5164        1.221149     
     72600   279.5356       964.43308      594.61377      25612.707      29.477128      1.2260363    
     72700   276.37605      995.47664      731.91335      25733.416      29.523362      1.2202852    
     72800   273.36374      1027.4379     -1191.2474      26061.131      29.64816       1.2049403    
     72900   269.35072      1067.0086      799.21343      26101.709      29.66354       1.2030671    
     73000   272.73915      1039.1084      825.89595      25945.947      29.604417      1.2102895    
     73100   277.16503      998.98297      163.75913      25837.313      29.563042      1.2153782    
     73200   275.12865      1019.7026      237.36488      25966.872      29.612373      1.2093142    
     73300   270.79549      1064.8056     -816.43284      25856.497      29.570357      1.2144765    
     73400   272.7016       1051.2304     -496.05007      26048.327      29.643304      1.2055326    
     73500   270.2297       1075.5321     -479.25341      25956.015      29.608245      1.20982      
     73600   273.5863       1047.2366     -1899.4115      25995.663      29.623313      1.2079749    
     73700   279.31938      995.5824       472.40644      26197.458      29.699768      1.19867      
     73800   270.55845      1076.3185     -2588.2965      26194.162      29.698522      1.1988209    
     73900   273.45361      1050.4702     -1557.1237      26199.576      29.700568      1.1985731    
     74000   276.7449       1022.8528      1615.7114      25979.15       29.61704       1.2087427    
     74100   277.09634      1017.477      -891.13652      25993.878      29.622635      1.2080578    
     74200   271.17361      1070.1254     -710.76638      26057.755      29.64688       1.2050964    
     74300   282.00794      968.95989      1107.0178      25976.224      29.615928      1.2088788    
     74400   272.76994      1052.8527     -1500.2394      26204.414      29.702396      1.1983518    
     74500   274.94696      1030.9526      220.07376      26186.198      29.695512      1.1991854    
     74600   273.40323      1044.3226      812.42232      26122.743      29.671506      1.2020984    
     74700   271.44938      1057.9826     -1643.0042      26109.217      29.666384      1.2027211    
     74800   271.14319      1057.8389      503.53903      25998.384      29.624347      1.2078484    
     74900   270.52262      1059.4         588.62748      26058.966      29.647339      1.2050404    
     75000   269.39331      1062.8226      602.62862      25929.918      29.598319      1.2110377    
     75100   275.01734      1004.5295     -626.46159      26204.848      29.70256       1.198332     
     75200   273.39984      1014.8856      527.99064      26137.282      29.67701       1.2014297    
     75300   268.2133       1052.9672     -18.944875      26102.139      29.663703      1.2030473    
     75400   271.4127       1017.0004     -779.68105      26184.946      29.695039      1.1992428    
     75500   273.64774      988.36866      34.492552      25923.242      29.595779      1.2113496    
     75600   272.63616      991.08207     -182.6538       25866.618      29.574214      1.2140013    
     75700   270.28108      1003.6597     -1127.52        25874.698      29.577293      1.2136222    
     75800   267.01952      1024.8018      520.2363       25881.848      29.580017      1.2132869    
     75900   267.16573      1016.6246      1190.4057      25934.11       29.599914      1.2108419    
     76000   270.95779      974.90022     -847.11423      25964.659      29.611532      1.2094173    
     76100   275.54202      926.71659      315.12308      25933.349      29.599624      1.2108775    
     76200   265.60411      1012.6127     -1424.2317      25996.01       29.623445      1.2079587    
[...]
    981900   462.59097      2963.1667      1986.7031      27519.146      30.191057      1.1411003    
    982000   476.16533      2922.2417      2010.5559      27271.862      30.100353      1.1514471    
    982100   481.78874      2856.8439      1086.0899      27284.674      30.105066      1.1509065    
    982200   470.25134      2817.0275     -457.50187      27320.283      30.118157      1.1494064    
    982300   463.5803       2824.7494     -172.35656      27472.538      30.174003      1.1430363    
    982400   465.75462      2839.5813     -1164.0745      27285.842      30.105496      1.1508572    
    982500   471.04202      2829.4036     -635.09827      27499.39       30.183831      1.1419201    
    982600   481.04748      2759.1275      2183.0555      27058.64       30.021703      1.1605205    
    982700   475.08578      2822.4347      198.37349      27288.863      30.106607      1.1507298    
    982800   468.64132      2880.3805      1981.8712      27367.627      30.135545      1.147418     
    982900   468.25445      2932.4625     -2393.4818      27220.125      30.081307      1.1536357    
    983000   481.78091      2914.198       2092.821       27208.814      30.07714       1.1541153    
    983100   473.79122      2945.8118     -1362.1205      27319.651      30.117925      1.149433     
    983200   465.37278      2878.0595     -1401.6696      27215.683      30.079671      1.153824     
    983300   464.68992      2843.7048     -893.05633      27028.046      30.010384      1.1618342    
    983400   467.83896      2850.7671     -13.305373      27119.606      30.044233      1.1579117    
    983500   473.52079      2836.3243      827.50653      27118.835      30.043949      1.1579445    
    983600   465.79385      2935.773       1910.5977      27237.458      30.087691      1.1529016    
    983700   466.90256      2949.0187      963.46486      27319.523      30.117878      1.1494383    
    983800   476.31456      2857.0355      918.26262      27170.632      30.063065      1.1557371    
    983900   475.63821      2790.0798      11.445674      27245.923      30.090808      1.1525433    
    984000   463.68846      2749.9244      2922.7097      27382.558      30.141024      1.1467923    
    984100   455.43463      2851.892       2655.5397      27305.384      30.112682      1.1500335    
    984200   470.71179      2795.0974     -3233.7143      27247.597      30.091424      1.1524725    
    984300   477.93896      2808.1622      1589.6261      27251.124      30.092722      1.1523234    
    984400   479.3194       2821.3548     -131.46603      27260.642      30.096225      1.151921     
    984500   474.87851      2809.1296      1857.39        27417.482      30.153833      1.1453316    
    984600   461.16862      2798.7057      616.65698      27349.117      30.128749      1.1481946    
    984700   450.03314      2872.3808      436.58666      27280.368      30.103483      1.1510881    
    984800   478.60833      2787.2654      164.43151      27205.013      30.07574       1.1542765    
    984900   475.35939      2863.5049      158.37471      27332.752      30.122738      1.148882     
    985000   469.43591      2877.0906      655.06237      27144.062      30.053262      1.1568684    
    985100   476.15826      2760.1989     -918.77057      27263.125      30.097139      1.1518161    
    985200   462.54294      2848.6543     -1131.031       27198.786      30.073444      1.1545408    
    985300   470.81907      2819.9833     -1096.4079      27355.759      30.131188      1.1479158    
    985400   479.83308      2841.3865      298.55971      27185.724      30.068629      1.1550955    
    985500   480.0342       2873.524       1402.4358      27349.893      30.129034      1.148162     
    985600   468.06298      2868.5186      985.97027      27485.433      30.178723      1.1425       
    985700   461.64144      2831.6024     -35.948808      27569.365      30.209411      1.1390218    
    985800   474.61191      2787.6306      689.69956      27387.628      30.142884      1.14658      
    985900   468.63623      2904.2644      13.444594      27315.619      30.116443      1.1496026    
    986000   475.00944      2862.56        990.18132      27189.684      30.070089      1.1549273    
    986100   470.25096      2844.6717      1839.1827      26908.413      29.96604       1.1669996    
    986200   465.18524      2772.6693     -69.884366      27211.104      30.077984      1.1540181    
    986300   466.02235      2781.3019      1646.0093      27333.321      30.122948      1.1488581    
    986400   476.43839      2914.9475      4282.1462      27089.052      30.032946      1.1592176    
    986500   477.47281      2915.8414     -1374.32        27328.739      30.121264      1.1490507    
    986600   470.69492      2880.5528     -23.584701      27547.949      30.201586      1.1399073    
    986700   467.16756      2864.0972     -644.05738      27334.219      30.123277      1.1488204    
    986800   469.18097      2841.9528      777.74253      27336.186      30.124         1.1487377    
    986900   483.36415      2783.9105      472.05942      27277.672      30.102491      1.1512019    
    987000   473.84348      2956.7141     -1117.303       27271.046      30.100053      1.1514816    
    987100   483.08081      2841.9928     -1933.0269      27396.009      30.145959      1.1462293    
    987200   468.99811      2813.1         215.65863      27065.169      30.024117      1.1602406    
    987300   466.55719      2798.3915     -277.57936      27022.05       30.008165      1.162092     
    987400   470.14333      2795.5743     -358.10799      27068.052      30.025183      1.160117     
    987500   473.61984      2869.669       318.65079      27068.266      30.025262      1.1601078    
    987600   486.40163      2851.1234      1286.781       27034.064      30.012611      1.1615755    
    987700   500.13114      2871.1273      801.05086      27059.329      30.021958      1.160491     
    987800   484.57834      2954.8337     -2113.2755      27245.308      30.090581      1.1525694    
    987900   470.0417       2920.3352      179.69804      27062.061      30.022968      1.1603738    
    988000   474.44877      2806.4337     -376.87591      27002.747      30.001017      1.1629227    
    988100   465.08791      2835.0432      999.49722      27053.967      30.019975      1.160721     
    988200   472.14223      2793.7076      1004.415       27297.055      30.10962       1.1503844    
    988300   479.55879      2871.9104      3623.1811      27095.044      30.03516       1.1589613    
    988400   480.75574      2910.5647      732.47302      27289.586      30.106873      1.1506993    
    988500   478.69043      2887.8078     -2896.5939      27476.041      30.175285      1.1428905    
    988600   474.59494      2857.6133     -186.47332      27199.837      30.073832      1.1544962    
    988700   474.9657       2836.8865      90.376776      27304.026      30.112182      1.1500907    
    988800   473.65052      2855.4442      811.41142      27355.894      30.131238      1.1479101    
    988900   475.13362      2845.6216      719.39434      27083.321      30.030828      1.1594629    
    989000   464.57972      2918.0216     -865.70439      27194.389      30.071824      1.1547275    
    989100   461.04034      2857.2367      506.60811      27300.594      30.110921      1.1502353    
    989200   451.5968       2903.2658     -945.27101      27164.135      30.060668      1.1560135    
    989300   483.04325      2746.9097     -574.25303      27182.613      30.067483      1.1552277    
    989400   478.39833      2891.1592     -407.28697      27332.763      30.122743      1.1488815    
    989500   476.51037      2884.0351      1351.4607      27405.31       30.14937       1.1458403    
    989600   460.74113      2943.4569     -83.34376       27513.396      30.188954      1.1413388    
    989700   471.60047      2767.0726      750.15255      27332.387      30.122604      1.1488974    
    989800   462.57141      2759.8748     -964.90177      27571.485      30.210185      1.1389342    
    989900   468.52997      2785.0678     -492.03647      27340.962      30.125754      1.148537     
    990000   476.59882      2852.1217     -3141.5685      27518.535      30.190834      1.1411257    
    990100   481.69848      2832.9413      821.39211      27067.62       30.025024      1.1601355    
    990200   467.16781      2887.3435     -2389.1506      26923.54       29.971655      1.1663439    
    990300   474.41315      2729.9275      652.7146       26950.662      29.981716      1.1651701    
    990400   465.62855      2815.2793      1544.0205      27035.078      30.012986      1.161532     
    990500   471.93206      2931.8449     -2998.3342      27111.048      30.041073      1.1582771    
    990600   481.05653      2892.5797     -2973.5989      27210.301      30.077688      1.1540522    
    990700   479.8962       2830.4875      746.93116      27346.615      30.127831      1.1482996    
    990800   459.13041      2914.4299      2341.0656      27163.887      30.060577      1.1560241    
    990900   471.52309      2800.5078      126.80819      27468.491      30.172521      1.1432047    
    991000   473.58436      2886.0526     -9.0254612      27354.358      30.130674      1.1479746    
    991100   476.86579      3040.0305     -569.20777      27322.964      30.119142      1.1492936    
    991200   481.45415      2950.7738      1538.803       27577.688      30.21245       1.138678     
    991300   473.62784      2888.5648      187.28218      27525.566      30.193405      1.1408342    
    991400   465.91478      2890.2697     -18.495369      27332.303      30.122574      1.1489009    
    991500   466.04424      2902.8573      130.35956      27346.764      30.127885      1.1482934    
    991600   477.3851       2927.359       2961.2927      27302.675      30.111685      1.1501477    
    991700   480.44855      2966.46       -3648.6474      27606.623      30.223013      1.1374845    
    991800   472.22886      2948.1723      1802.3135      27230.45       30.08511       1.1531983    
    991900   469.37985      2812.3414      1920.6889      27493.867      30.18181       1.1421495    
    992000   464.67449      2845.1545      1274.214       27411.175      30.151521      1.1455951    
    992100   476.65757      2804.8359      2951.5409      27375.793      30.138542      1.1470757    
    992200   481.89571      2876.5566      37.633333      27334.469      30.12337       1.1488098    
    992300   475.20022      2965.0857      1239.5277      27545.122      30.200553      1.1400243    
    992400   474.5432       2860.7703      1657.2399      27641.009      30.235556      1.1360695    
    992500   466.74486      2763.5497     -299.74844      27591.727      30.217576      1.1380987    
    992600   461.807        2861.711      -693.16398      27545.715      30.20077       1.1399997    
    992700   469.24349      2899.1659      495.46167      27453.683      30.167098      1.1438213    
    992800   482.61236      2839.7761     -426.5835       27821.721      30.301305      1.1286903    
    992900   473.95003      2933.4244      1100.1477      27689.361      30.253176      1.1340857    
    993000   476.07978      2863.6093     -2427.0658      27711.39       30.261197      1.1331841    
    993100   463.65504      2825.4568     -2392.8023      27357.092      30.131677      1.1478598    
    993200   464.64015      2797.8567      2054.4712      27145.909      30.053943      1.1567897    
    993300   474.85817      2828.5019     -1073.8708      27458.025      30.168689      1.1436404    
    993400   470.38544      2926.6647      1647.1223      27351.262      30.129537      1.1481045    
    993500   477.87337      2839.4876      2175.7247      27234.827      30.086722      1.1530129    
    993600   471.07125      2859.6851     -44.360707      27586.015      30.215491      1.1383343    
    993700   461.38776      2953.1687     -353.70897      27570.848      30.209952      1.1389605    
    993800   477.564        2936.7886     -1671.9739      27606.883      30.223108      1.1374739    
    993900   481.55816      3012.2488     -1143.2365      27587.781      30.216136      1.1382614    
    994000   482.0832       2916.1059     -226.05365      27616.735      30.226703      1.1370681    
    994100   484.25142      2783.0697      2465.4163      27591.522      30.217502      1.1381071    
    994200   468.0265       2882.5143     -1897.0533      27625.043      30.229734      1.1367261    
    994300   471.70853      2844.159      -1892.5147      27586.869      30.215803      1.1382991    
    994400   477.39843      2893.179       3661.4384      27251.509      30.092864      1.1523071    
    994500   483.38502      2970.4139      630.83933      27316.037      30.116597      1.149585     
    994600   481.23663      2931.4048     -1344.5866      27593.795      30.218331      1.1380134    
    994700   473.56568      2903.4749      518.35911      27478.109      30.176042      1.1428045    
    994800   467.86572      2926.6555      356.56937      27548.577      30.201816      1.1398813    
    994900   465.42465      2916.4134      745.62666      27611.791      30.224899      1.1372716    
    995000   465.65872      2916.5286      1129.1329      27634.253      30.233093      1.1363473    
    995100   475.2756       2976.4417      14.939694      27614.442      30.225866      1.1371625    
    995200   476.99037      3013.6988     -1443.4772      27608.932      30.223856      1.1373894    
    995300   486.15619      2825.0761      3052.6292      27636.874      30.234048      1.1362395    
    995400   469.81298      2882.3257      2173.3046      27527.746      30.194202      1.1407438    
    995500   471.29642      2877.9013     -601.85262      27654.209      30.240369      1.1355272    
    995600   468.50687      2938.9273     -1552.4109      27722.137      30.265109      1.1327448    
    995700   470.81044      2950.6769     -3197.8276      27686.928      30.25229       1.1341853    
    995800   479.17836      2953.9349     -145.72069      27586.329      30.215606      1.1383214    
    995900   472.23996      3026.5786      3793.9984      27283.431      30.104609      1.1509589    
    996000   474.5884       2854.1668     -738.56805      27363.223      30.133928      1.1476026    
    996100   475.47915      2781.7988      834.11015      27255.396      30.094294      1.1521428    
    996200   471.51076      2816.9389     -1891.394       27320.893      30.118381      1.1493807    
    996300   479.31866      2840.9168     -1182.2732      27221.365      30.081764      1.1535831    
    996400   485.82732      2937.7558     -24.021267      27300.97       30.111059      1.1502195    
    996500   481.97965      2939.3442     -922.50668      27502.331      30.184907      1.141798     
    996600   483.21558      2846.5239      1430.8251      27536.178      30.197284      1.1403946    
    996700   470.29885      2897.6357      2281.3459      27830.871      30.304626      1.1283192    
    996800   474.07841      2831.0027     -1032.7597      27724.873      30.266104      1.132633     
    996900   473.03907      2773.7828     -1183.4382      27703.568      30.25835       1.1335041    
    997000   467.53315      2670.977       972.51814      27520.714      30.19163       1.1410353    
    997100   468.53382      2722.5776      1874.291       27268.569      30.099142      1.1515862    
    997200   465.96845      2870.5649     -1431.0195      27430.449      30.158586      1.1447901    
    997300   469.91261      2892.9468     -1640.6933      27509.958      30.187697      1.1414815    
    997400   471.36537      2928.9466      1.9044514      27619.788      30.227817      1.1369424    
    997500   468.56529      2981.3376     -1770.4844      27487.81       30.179593      1.1424012    
    997600   475.87171      2852.0771      2992.9843      27396.29       30.146062      1.1462175    
    997700   460.69903      2855.5168     -433.46236      27481.611      30.177324      1.1426589    
    997800   461.54921      2854.8573     -841.5701       27551.865      30.203018      1.1397452    
    997900   476.23551      2860.6444     -3250.1507      27497.602      30.183176      1.1419944    
    998000   483.86682      2850.1206     -1779.1005      27568.457      30.209079      1.1390593    
    998100   479.61773      2861.2512      1535.9857      27727.042      30.266893      1.1325445    
    998200   474.90994      2844.0847     -2157.449       27867.052      30.317753      1.1268543    
    998300   469.54764      2781.7975     -360.5569       27478.238      30.176089      1.1427992    
    998400   457.14237      2776.7619     -381.47922      27493.481      30.181668      1.1421656    
    998500   462.29946      2795.7046     -268.11059      27859.025      30.314842      1.127179     
    998600   482.79125      2794.4375     -1479.8694      27640.644      30.235423      1.1360845    
    998700   476.30729      2901.5873     -576.95704      27848.108      30.310881      1.1276208    
    998800   474.18116      2911.9496      1225.0193      27731.227      30.268416      1.1323735    
    998900   469.88913      2899.5169     -2730.8476      27745.396      30.27357       1.1317953    
    999000   474.98147      2794.7109      508.67212      27694.527      30.255057      1.1338741    
    999100   466.318        2819.1569      660.82745      27775.364      30.284466      1.1305741    
    999200   471.03801      2833.6727     -484.06656      27767.827      30.281726      1.130881     
    999300   481.94268      2882.5769      901.27254      27848.353      30.31097       1.1276109    
    999400   473.39342      2980.2278     -1215.2174      27680.222      30.249847      1.1344601    
    999500   470.42518      2923.0994     -192.36014      27680.811      30.250062      1.134436     
    999600   471.89651      2800.7432      1988.1695      27642.55       30.236118      1.1360062    
    999700   464.40988      2809.8142     -349.4845       27816.109      30.299267      1.128918     
    999800   475.51836      2879.5566     -808.26603      27873.964      30.320259      1.1265749    
    999900   484.4067       2895.4023      2423.9885      27604.889      30.22238       1.137556     
   1000000   475.59513      2913.5654      523.89984      27807.534      30.296154      1.1292662    
Loop time of 3167.41 on 1 procs for 200000 steps with 2988 atoms

Performance: 5.456 ns/day, 4.399 hours/ns, 63.143 timesteps/s
99.5% CPU use with 1 MPI tasks x 1 OpenMP threads

MPI task timing breakdown:
Section |  min time  |  avg time  |  max time  |%varavg| %total
---------------------------------------------------------------
Pair    | 2631.2     | 2631.2     | 2631.2     |   0.0 | 83.07
Bond    | 90.03      | 90.03      | 90.03      |   0.0 |  2.84
Neigh   | 387.52     | 387.52     | 387.52     |   0.0 | 12.23
Comm    | 14.416     | 14.416     | 14.416     |   0.0 |  0.46
Output  | 12.452     | 12.452     | 12.452     |   0.0 |  0.39
Modify  | 28.164     | 28.164     | 28.164     |   0.0 |  0.89
Other   |            | 3.612      |            |       |  0.11

Nlocal:           2988 ave        2988 max        2988 min
Histogram: 1 0 0 0 0 0 0 0 0 0
Nghost:          14168 ave       14168 max       14168 min
Histogram: 1 0 0 0 0 0 0 0 0 0
Neighs:    1.14434e+06 ave 1.14434e+06 max 1.14434e+06 min
Histogram: 1 0 0 0 0 0 0 0 0 0

Total # of neighbors = 1144338
Ave neighs/atom = 382.97791
Ave special neighs/atom = 12.156627
Neighbor list builds = 12175
Dangerous builds = 2
unfix			1
#final
write_data		thermal_expansion_200ps.data
System init for write_data ...
Generated 153 of 153 mixed pair_coeff terms from geometric mixing rule

#parameter
neighbor		2.0 bin
Total wall time: 4:27:37
