units			real
dimension		3
processors		* * *
boundary		p p p
atom_style		full
pair_style		lj/cut 10.0
bond_style		harmonic
angle_style 	harmonic
read_data		after_cross_linking_correct.data
Reading data file ...
  orthogonal box = (30.222448 27.307948 30.19145) to (59.884552 56.970052 59.853554)
  1 by 1 by 1 MPI processor grid
  reading atoms ...
  2988 atoms
  reading velocities ...
  2988 velocities
  scanning bonds ...
  4 = max bonds/atom
  scanning angles ...
  6 = max angles/atom
  reading bonds ...
  3044 bonds
  reading angles ...
  5800 angles
Finding 1-2 1-3 1-4 neighbors ...
  special bond factors lj:    0        0        0       
  special bond factors coul:  0        0        0       
     4 = max # of 1-2 neighbors
     7 = max # of 1-3 neighbors
    16 = max # of 1-4 neighbors
    20 = max # of special neighbors
  special bonds CPU = 0.004 seconds
  read_data CPU = 0.064 seconds
variable simname index ssc_linked_2
variable tmp equal "lx"
variable L0 equal ${tmp}
variable L0 equal 29.6621039368179
variable strain equal "(lx - v_L0)/v_L0"
variable p1 equal "v_strain"
variable p2 equal "-pxx/10000*1.01325"
variable p3 equal "-pyy/10000*1.01325"
variable p4 equal "-pzz/10000*1.01325"
variable p5 equal "lx"
variable p6 equal "ly"
variable p7 equal "lz"
variable p8 equal "temp"
fix		1 all npt temp 300 300 50 y 1 1 100 z 1 1 100
fix		2 all deform 1 x erate 1e-5 units box remap x
fix        3 all ave/time 1 100 100 v_p2 v_p3
variable avg_stress equal f_3[1]
fix def1 all print 100 "${p1} ${p2} ${avg_stress}" file ${simname}.txt screen no
fix def1 all print 100 "${p1} ${p2} ${avg_stress}" file ssc_linked_2.txt screen no
thermo_style	custom step temp v_p2 v_avg_stress lx ly lz vol v_strain pxx
thermo          100
timestep	1
run		100000
Generated 153 of 153 mixed pair_coeff terms from geometric mixing rule
Last active /omp style is angle_style harmonic/omp
Neighbor list info ...
  update every 1 steps, delay 10 steps, check yes
  max neighbors/atom: 2000, page size: 100000
  master list distance cutoff = 12
  ghost atom cutoff = 12
  binsize = 6, bins = 5 5 5
  1 neighbor lists, perpetual/occasional/extra = 1 0 0
  (1) pair lj/cut/omp, perpetual
      attributes: half, newton on, omp
      pair build: half/bin/newton/omp
      stencil: half/bin/3d
      bin: standard
WARNING: Inconsistent image flags (src/domain.cpp:819)
Per MPI rank memory allocation (min/avg/max) = 27.41 | 27.41 | 27.41 Mbytes
   Step          Temp           v_p2       v_avg_stress        Lx             Ly             Lz           Volume        v_strain         Pxx      
         0   296.64116     -0.28038351     0              29.662104      29.662104      29.662104      26097.918      5.9886407e-16  2767.1701    
       100   304.17026     -0.21527043     0.069636908    29.691766      29.599472      29.485774      25913.885      0.001          2124.554     
       200   300.72577     -0.041595085   -0.024796255    29.721428      29.648387      29.56556       26052.947      0.002          410.51158    
       300   296.78447     -0.044067559   -0.0067411854   29.75109       29.692165      29.524493      26081.177      0.003          434.91299    
       400   299.4154       0.37106285     0.027961221    29.780752      29.82535       29.281247      26008.229      0.004         -3662.1056    
       500   296.07999      0.25106057     0.040062325    29.810414      29.809842      29.23695       25981.233      0.005         -2477.7752    
       600   297.39801      0.24092257     0.065243179    29.840077      29.871381      29.429001      26231.961      0.006         -2377.7209    
       700   303.7149       0.13619546    -0.006998249    29.869739      29.873076      29.417352      26249.132      0.007         -1344.1447    
       800   299.75749      0.52138488     0.09258761     29.899401      29.906951      29.42417       26311.091      0.008         -5145.6687    
       900   293.10636      0.14528272     0.10383697     29.929063      29.860253      29.31484       26198.361      0.009         -1433.829     
      1000   303.96565      0.31496568     0.12859253     29.958725      29.908526      29.21519       26177.433      0.01          -3108.4696    
      1100   305.79804     -0.16795792    -0.0038037916   29.988387      29.798485      29.315626      26196.693      0.011          1657.6158    
      1200   297.44661     -0.051903561    0.061016315    30.018049      29.748513      29.341805      26202.007      0.012          512.24832    
      1300   308.31688     -0.037263546    0.10269648     30.047711      29.789745      29.347353      26269.217      0.013          367.76261    
      1400   299.73866     -0.11986008     0.12379988     30.077373      29.473063      29.308203      25980.911      0.014          1182.927     
      1500   297.62073      0.24902786     0.054984297    30.107035      29.522725      29.394444      26127.008      0.015         -2457.7139    
      1600   302.90302      0.049199514    0.07565231     30.136698      29.667055      29.368034      26256.992      0.016         -485.56145    
      1700   294.71318      0.13334425     0.14323592     30.16636       29.608683      29.571409      26412.774      0.017         -1316.0054    
      1800   303.40989      0.027012717    0.14036039     30.196022      29.609692      29.326815      26220.956      0.018         -266.59479    
      1900   303.90427      0.31080576     0.071637837    30.225684      29.567542      29.185386      26082.955      0.019         -3067.4143    
      2000   297.9937       0.06836485     0.15305353     30.255346      29.585382      29.184479      26123.493      0.02          -674.70861    
      2100   299.85814     -0.14716839     0.079542583    30.285008      29.344886      29.393876      26122.635      0.021          1452.4391    
      2200   306.13017     -0.13955263     0.097926845    30.31467       29.342917      29.450584      26196.909      0.022          1377.2774    
      2300   293.77771      0.15643853     0.098156158    30.344332      29.464401      29.47018       26348.627      0.023         -1543.9283    
      2400   310.43062     -0.041583994    0.14867964     30.373994      29.542914      29.279847      26273.87       0.024          410.40211    
      2500   296.98682     -0.12392214     0.14328127     30.403657      29.554246      29.388904      26407.61       0.025          1223.0164    
      2600   293.82619     -0.060500398    0.16123021     30.433319      29.592931      29.536522      26600.92       0.026          597.09251    
      2700   301.88896      0.046448156    0.15770549     30.462981      29.437496      29.552964      26501.735      0.027         -458.40766    
      2800   298.00066     -0.045986995    0.055122345    30.492643      29.500152      29.315801      26370.666      0.028          453.85636    
      2900   292.89341      0.1226694      0.10448452     30.522305      29.515019      29.25423       26354.154      0.029         -1210.6528    
      3000   304.13108      0.13131381     0.13893158     30.551967      29.683926      29.419064      26680.217      0.03          -1295.9666    
      3100   300.47495     -0.0074562661   0.20687224     30.581629      29.587305      29.374641      26578.998      0.031          73.587625    
      3200   295.07604      0.35602905     0.085248863    30.611291      29.415478      29.343097      26421.867      0.032         -3513.7335    
      3300   300.78582      0.12390655     0.23036635     30.640953      29.70087       29.043821      26431.707      0.033         -1222.8626    
      3400   302.36806      0.43598508     0.099708211    30.670615      29.893685      29.148568      26725.089      0.034         -4302.8382    
      3500   301.1325       0.48897607     0.29522288     30.700278      29.704709      29.177185      26607.924      0.035         -4825.8186    
      3600   293.91594     -0.02500637     0.14714753     30.72994       29.593788      29.268156      26616.909      0.036          246.79369    
      3700   299.44133     -0.033835228    0.16559238     30.759602      29.440506      29.382338      26608.006      0.037          333.92774    
      3800   305.27102     -0.020754234    0.25710914     30.789264      29.619157      29.493063      26896.26       0.038          204.82837    
      3900   307.0978       0.095967229    0.15966136     30.818926      29.629272      29.342654      26794.02       0.039         -947.12291    
      4000   292.73115     -0.20667379     0.16727085     30.848588      29.575489      29.172065      26615.486      0.04           2039.7117    
      4100   300.88428     -0.30537289     0.1077208      30.87825       29.535186      29.050273      26493.7        0.041          3013.7961    
      4200   301.31469      0.084698244    0.088272603    30.907912      29.722497      28.897984      26547.432      0.042         -835.90668    
      4300   306.8729      -0.025281332    0.12418928     30.937574      29.576451      29.075592      26604.854      0.043          249.50735    
      4400   295.75088      0.15043755     0.15110424     30.967237      29.869595      28.726835      26571.713      0.044         -1484.7032    
      4500   299.82091      0.4849486      0.15705169     30.996899      29.995441      28.628143      26617.464      0.045         -4786.0706    
      4600   301.10067      0.29822966     0.20258662     31.026561      30.073571      28.729201      26806.628      0.046         -2943.2979    
      4700   305.00283      0.17309784     0.22221499     31.056223      30.039703      28.895773      26957.436      0.047         -1708.3428    
      4800   301.49243      0.34339652     0.21313056     31.085885      29.97486       28.937648      26963.958      0.048         -3389.0601    
      4900   299.1075       0.038243277    0.19162102     31.115547      29.708797      28.952655      26763.992      0.049         -377.4318     
      5000   294.97666      0.090750384    0.19677607     31.145209      29.697629      28.742554      26585.105      0.05          -895.63666    
      5100   297.70306      0.23174785     0.12222403     31.174871      29.79132       28.942885      26880.431      0.051         -2287.1735    
      5200   299.21755      0.18771428     0.20907435     31.204533      29.839359      28.731945      26752.983      0.052         -1852.5959    
      5300   304.3337       0.14133425     0.20879637     31.234195      29.605226      28.722072      26559.168      0.053         -1394.8606    
      5400   307.83672      0.090622538    0.28324193     31.263858      29.794641      28.653123      26690.252      0.054         -894.37492    
      5500   294.81026      0.26808917     0.13113572     31.29352       29.91358       28.588565      26761.79       0.055         -2645.8344    
      5600   301.2429       0.41091976     0.20464235     31.323182      29.89479       28.652205      26829.923      0.056         -4055.4627    
      5700   304.28807      0.29074641     0.14610664     31.352844      29.577652      28.831466      26736.673      0.057         -2869.4439    
      5800   293.64344      0.0088300951   0.19431352     31.382506      29.560099      28.873133      26784.739      0.058         -87.146263    
      5900   302.07139      0.050209547    0.11532175     31.412168      29.512695      28.575151      26490.815      0.059         -495.5297     
      6000   300.2415       0.24487062     0.16373994     31.44183       29.760974      28.52295       26690.051      0.06          -2416.6851    
      6100   299.09545      0.21812525     0.28709901     31.471492      29.649119      28.579239      26667.346      0.061         -2152.7288    
      6200   297.63283      0.30810113     0.21410269     31.501154      29.632811      28.660711      26753.85       0.062         -3040.7218    
      6300   299.08067      0.45460347     0.20855199     31.530816      29.683473      28.659074      26823.292      0.063         -4486.5874    
      6400   297.30648      0.16857748     0.17380444     31.560479      29.453888      28.587657      26574.479      0.064         -1663.7303    
      6500   296.08028      0.42312923     0.22866647     31.590141      29.294636      28.609871      26476.195      0.065         -4175.9608    
      6600   297.12302      0.28426733     0.19564943     31.619803      29.339387      28.809499      26726.734      0.066         -2805.5005    
      6700   303.77092      0.17954293     0.28177347     31.649465      29.366381      28.609077      26590.142      0.067         -1771.9509    
      6800   293.19623      0.36038829     0.32544149     31.679127      29.324391      28.696876      26658.568      0.068         -3556.7559    
      6900   306.15986      0.12258883     0.3176714      31.708789      29.517043      28.589776      26758.592      0.069         -1209.8577    
      7000   293.28869      0.4410722      0.20900193     31.738451      29.579832      28.665074      26911.289      0.07          -4353.0442    
      7100   300.27423     -0.11438069     0.26261549     31.768113      29.485722      28.673932      26859.037      0.071          1128.8497    
      7200   303.34352      0.43064322     0.16021324     31.797775      29.547421      28.699853      26964.725      0.072         -4250.1181    
      7300   296.32542      0.43258206     0.2465515      31.827438      29.428328      28.700696      26881.883      0.073         -4269.253     
      7400   296.09764      0.33290337     0.076736056    31.8571        29.66788       28.500026      26936.304      0.074         -3285.5008    
      7500   299.00884      0.52127453     0.27263403     31.886762      29.855976      28.358737      26997.812      0.075         -5144.5796    
      7600   292.84226      0.51331534     0.23701104     31.916424      29.73676       28.464841      27015.726      0.076         -5066.0285    
      7700   295.86697     -0.017913458    0.19403752     31.946086      29.648734      28.355737      26857.448      0.077          176.79209    
      7800   307.80449      0.24319572     0.22324288     31.975748      29.71369       28.435995      27017.536      0.078         -2400.1552    
      7900   299.86009      0.64031492     0.2435556      32.00541       29.626172      28.574681      27094.449      0.079         -6319.4169    
      8000   298.88778      0.44886585     0.35104076     32.035072      29.525391      28.497173      26953.995      0.08          -4429.9615    
      8100   307.76574      0.19922407     0.13694282     32.064734      29.382064      28.425581      26780.538      0.081         -1966.1887    
      8200   300.53522      0.25104062     0.37325565     32.094396      29.363479      28.509346      26867.297      0.082         -2477.5783    
      8300   299.72061      0.29967965     0.27813684     32.124059      29.299307      28.599534      26918.243      0.083         -2957.6082    
      8400   300.74848     -0.038926487    0.29873506     32.153721      29.145453      28.634121      26834.029      0.084          384.17455    
      8500   305.53111      0.15278485     0.20815598     32.183383      29.496025      28.611459      27160.339      0.085         -1507.8692    
      8600   302.01609      0.26732729     0.28541707     32.213045      29.400308      28.685366      27167.148      0.086         -2638.3152    
      8700   303.66632      0.075923438    0.30726399     32.242707      29.500996      28.511519      27119.927      0.087         -749.30607    
      8800   293.68382      0.39382519     0.30098529     32.272369      29.469355      28.38692       26997.264      0.088         -3886.7524    
      8900   295.93404      0.40381618     0.36772185     32.302031      29.32002       28.442306      26937.6        0.089         -3985.3558    
      9000   300.75008      0.42621438     0.16721248     32.331693      29.276716      28.412718      26894.507      0.09          -4206.4089    
      9100   292.22307      0.6361432      0.38965684     32.361355      29.275731      28.730865      27219.689      0.091         -6278.2452    
      9200   301.81062      0.31360624     0.40980777     32.391017      29.053041      28.61805       26931.232      0.092         -3095.053     
      9300   292.7453       0.097207181    0.28488022     32.42068       29.033281      28.556392      26879.524      0.093         -959.36028    
      9400   296.59258     -0.02649962     0.29909822     32.450342      29.149322      28.590619      27044.022      0.094          261.53091    
      9500   307.82482      0.53752487     0.37017452     32.480004      29.233131      28.542915      27101.275      0.095         -5304.958     
      9600   294.58711      0.36008012     0.33711255     32.509666      29.288836      28.660088      27289.284      0.096         -3553.7145    
      9700   300.62855      0.2348568      0.15100853     32.539328      29.332217      28.671769      27365.788      0.097         -2317.8564    
      9800   303.40652      0.39426454     0.35515055     32.56899       29.407837      28.640349      27431.255      0.098         -3891.0885    
      9900   296.49937      0.68249148     0.35128594     32.598652      29.288306      28.491107      27202.149      0.099         -6735.6672    
     10000   301.44627      0.428646       0.30928701     32.628314      29.341027      28.487595      27272.549      0.1           -4230.4071    
     10100   299.53663      0.1956623      0.41506146     32.657976      29.195804      28.696956      27361.855      0.101         -1931.0367    
     10200   300.32219      0.32395316     0.33258857     32.687639      29.000594      28.698356      27204.92       0.102         -3197.1691    
     10300   298.56188      0.27230559     0.32506528     32.717301      28.961544      28.588672      27089.012      0.103         -2687.4472    
     10400   297.08428      0.20583779     0.40730574     32.746963      28.993591      28.392191      26957.023      0.104         -2031.461     
     10500   297.23592      0.44490426     0.34828067     32.776625      28.916001      28.471018      26983.945      0.105         -4390.8637    
     10600   292.31895      0.58356562     0.36537533     32.806287      29.001886      28.432559      27051.993      0.106         -5759.3449    
     10700   303.05851      0.24303506     0.34550389     32.835949      29.017735      28.274368      26940.521      0.107         -2398.5695    
     10800   300.64112      0.65438326     0.25169848     32.865611      29.058509      28.431533      27152.844      0.108         -6458.2607    
     10900   292.86075      0.65895128     0.37774022     32.895273      28.868755      28.458723      27025.701      0.109         -6503.3435    
     11000   302.42317      0.43334809     0.28714175     32.924935      28.91567       28.413381      27050.862      0.11          -4276.8132    
     11100   306.98113      0.14132899     0.30422993     32.954597      29.053785      28.406468      27197.937      0.111         -1394.8087    
     11200   303.05404     -0.0061369781   0.28916272     32.98426       28.985138      28.377796      27130.686      0.112          60.567264    
     11300   294.17718      0.36429569     0.2602276      33.013922      29.180413      28.272346      27236.443      0.113         -3595.3189    
     11400   299.5574       0.44037786     0.32436532     33.043584      29.270553      28.269963      27342.821      0.114         -4346.1916    
     11500   305.71775      0.30006639     0.34912557     33.073246      29.153879      28.276112      27264.206      0.115         -2961.425     
     11600   299.87842      0.45784804     0.19888247     33.102908      29.051585      28.445167      27355.488      0.116         -4518.6088    
     11700   302.37436      0.38174732     0.34536611     33.13257       29.017586      28.561885      27460.173      0.117         -3767.5531    
     11800   306.38473      0.29426077     0.34233882     33.162232      29.160964      28.409289      27472.995      0.118         -2904.128     
     11900   303.92695      0.42224498     0.26883297     33.191894      29.20454       28.401032      27530.654      0.119         -4167.2339    
     12000   307.17475      0.2535869      0.31693797     33.221556      29.245643      28.229153      27427.044      0.12          -2502.7081    
     12100   303.44423      0.58300772     0.40296271     33.251219      29.055597      28.434884      27471.908      0.121         -5753.8388    
     12200   299.69966      0.34885172     0.41721346     33.280881      29.026196      28.340322      27377.244      0.122         -3442.8988    
     12300   304.2575       0.47479953     0.40123024     33.310543      29.254636      28.308928      27586.705      0.123         -4685.907     
     12400   302.16425      0.27320535     0.296987       33.340205      29.30168       28.194179      27543.57       0.124         -2696.3272    
     12500   295.57273      0.33664938     0.35696422     33.369867      29.259588      28.025667      27363.94       0.125         -3322.4711    
     12600   295.14319      0.59676138     0.27831459     33.399529      29.332193      28.125615      27554.143      0.126         -5889.5769    
     12700   295.5844       0.39772195     0.36015908     33.429191      29.404847      27.978963      27502.768      0.127         -3925.2104    
     12800   298.94572      0.26605079     0.33876329     33.458853      29.479559      27.970166      27588.436      0.128         -2625.7171    
     12900   298.76323      0.59238069     0.31678004     33.488515      29.392599      28.062034      27621.867      0.129         -5846.3429    
     13000   298.04743      0.24013277     0.21002978     33.518177      29.385847      28.119418      27696.503      0.13          -2369.9262    
     13100   295.99387      0.49215658     0.35055751     33.54784       29.262984      28.127108      27612.66       0.131         -4857.2078    
     13200   300.96051      0.34799011     0.41937789     33.577502      29.41465       28.200988      27853.282      0.132         -3434.3953    
     13300   291.5236       0.48021918     0.44975196     33.607164      29.37245       28.163446      27800.834      0.133         -4739.3948    
     13400   289.47405      0.061860112    0.30790242     33.636826      29.270474      27.99945       27567.302      0.134         -610.51184    
     13500   298.48601      0.37968833     0.30008433     33.666488      29.442862      28.022615      27777.074      0.135         -3747.2325    
     13600   298.96077      0.4318961      0.36277532     33.69615       29.396399      28.1656        27899.307      0.136         -4262.4831    
     13700   298.65772      0.18372952     0.41918877     33.725812      29.272649      28.243186      27882.911      0.137         -1813.2694    
     13800   303.04911      0.33588564     0.41910537     33.755474      29.202807      28.13371       27732.934      0.138         -3314.9336    
     13900   298.87699      0.3529002      0.29768665     33.785136      29.181427      28.105647      27709.314      0.139         -3482.8542    
     14000   289.59178      0.25744271     0.2486139      33.814798      29.05601       28.252168      27758.409      0.14          -2540.762     
     14100   299.89331      0.18814157     0.34119287     33.844461      29.142573      28.015323      27631.924      0.141         -1856.8129    
     14200   296.35084      0.43162933     0.49972706     33.874123      28.962673      27.930649      27402.344      0.142         -4259.8503    
     14300   292.39902      0.29111222     0.44035015     33.903785      28.889951      28.031158      27455.922      0.143         -2873.0542    
     14400   298.83719     -0.10049228     0.37362937     33.933447      28.933893      28.097284      27586.664      0.144          991.78166    
     14500   300.46183      0.24623441     0.31957541     33.963109      29.023569      28.15989       27758.067      0.145         -2430.1447    
     14600   296.86844      0.21942914     0.29254096     33.992771      29.153424      27.933644      27682.399      0.146         -2165.5972    
     14700   292.1337       0.21469641     0.31553743     34.022433      29.186825      27.928526      27733.216      0.147         -2118.8888    
     14800   297.92703      0.36754721     0.39606772     34.052095      28.980932      28.070097      27701.297      0.148         -3627.4089    
     14900   298.62227      0.47396283     0.30476481     34.081757      29.096347      27.906776      27673.884      0.149         -4677.6495    
     15000   291.14223      0.51392872     0.33710728     34.11142       29.212122      27.883114      27784.601      0.15          -5072.0822    
     15100   300.96271      0.57181742     0.42998498     34.141082      29.197605      27.86942       27781.292      0.151         -5643.3992    
     15200   302.29492      0.56030863     0.3662982      34.170744      29.198455      27.74685       27683.946      0.152         -5529.8162    
     15300   292.28508      0.36666938     0.41116382     34.200406      29.317347      27.664899      27738.63       0.153         -3618.7454    
     15400   304.05489      0.3339475      0.49360001     34.230068      29.375096      27.789474      27942.637      0.154         -3295.8056    
     15500   297.40138      0.40175564     0.30523964     34.25973       29.325447      27.718555      27848.33       0.155         -3965.0199    
     15600   294.48387      0.19358181     0.38002913     34.289392      29.370375      27.935673      28133.802      0.156         -1910.5039    
     15700   311.1474       0.25440643     0.26616208     34.319054      29.40475       27.823182      28077.575      0.157         -2510.7963    
     15800   299.35331      0.18660521     0.22979351     34.348716      29.182453      27.861519      27927.824      0.158         -1841.6503    
     15900   299.39431      0.17028329     0.27984215     34.378378      29.088352      27.948895      27949.185      0.159         -1680.5654    
     16000   307.73444      0.41857408     0.31437996     34.408041      29.199014      28.130171      28261.844      0.16          -4131.005     
     16100   297.82018      0.20480022     0.41690849     34.437703      29.562573      27.973175      28478.57       0.161         -2021.221     
     16200   299.79032      0.2126637      0.40292177     34.467365      29.699244      28.032898      28696.006      0.162         -2098.8275    
     16300   303.65209      0.12959855     0.40747594     34.497027      29.702381      27.649925      28331.325      0.163         -1279.0382    
     16400   302.34664      0.44939754     0.3500314      34.526689      29.566499      27.560175      28134.345      0.164         -4435.2089    
     16500   300.27284      0.47140173     0.44290806     34.556351      29.330956      27.673794      28049.35       0.165         -4652.3734    
     16600   300.35477      0.26502933     0.45282854     34.586013      29.256671      27.666213      27994.656      0.166         -2615.6362    
     16700   308.80316      0.64372028     0.34217053     34.615675      28.980264      27.858155      27946.505      0.167         -6353.0253    
     16800   301.27858      0.33459974     0.40996196     34.645337      29.28159       27.672197      28072.629      0.168         -3302.2427    
     16900   303.83391      0.25839239     0.47305973     34.675         29.286367      27.727157      28157.06       0.169         -2550.1346    
     17000   299.86299      0.7102379      0.50276775     34.704662      29.16777       27.826961      28168.053      0.17          -7009.5031    
     17100   302.74596      0.20642381     0.29152701     34.734324      29.147163      27.757453      28101.84       0.171         -2037.2446    
     17200   300.56178      0.045035716    0.42716959     34.763986      29.191225      27.776074      28187.252      0.172         -444.46796    
     17300   315.46497     -0.09940084     0.38616308     34.793648      29.131339      27.578002      27952.664      0.173          981.01002    
     17400   304.0751       0.39035266     0.34303279     34.82331       29.211435      27.526556      28001.083      0.174         -3852.4812    
     17500   293.93317      0.24910657     0.44266461     34.852972      29.063815      27.597355      27955.026      0.175         -2458.4907    
     17600   296.91741      0.31016588     0.42613839     34.882634      29.102146      27.708118      28128.161      0.176         -3061.0992    
     17700   307.81951      0.2479617      0.35295103     34.912296      28.925203      27.664659      27937.025      0.177         -2447.1917    
     17800   298.08318      0.20526281     0.35939831     34.941958      29.017835      27.404764      27786.786      0.178         -2025.7865    
     17900   298.89592      0.52319951     0.47192441     34.971621      29.001959      27.608528      28001.826      0.179         -5163.5777    
     18000   292.72469      0.30677266     0.38151139     35.001283      28.869737      27.716158      28006.563      0.18          -3027.6107    
     18100   298.94169      0.25055828     0.30650294     35.030945      29.212814      27.199905      27835.09       0.181         -2472.818     
     18200   304.8893       0.097857353    0.42701685     35.060607      29.407663      27.304443      28152.26       0.182         -965.77698    
     18300   306.34215      0.47539876     0.33951093     35.090269      29.179972      27.462976      28120.25       0.183         -4691.821     
     18400   300.95504      0.28905899     0.38240916     35.119931      29.186155      27.421142      28107.102      0.184         -2852.7904    
     18500   307.16077      0.28984132     0.47185002     35.149593      29.24734       27.457733      28227.431      0.185         -2860.5114    
     18600   294.4063      -0.054657131    0.31534785     35.179255      28.973646      27.542039      28072.809      0.186          539.42394    
     18700   300.06883      0.42225472     0.38202328     35.208917      28.904183      27.739078      28229.644      0.187         -4167.3301    
     18800   299.36763      0.38855343     0.42531078     35.238579      28.923034      27.584874      28114.686      0.188         -3834.7242    
     18900   294.81164      0.47880786     0.44887592     35.268242      28.810665      27.648213      28093.39       0.189         -4725.4662    
     19000   300.23947      0.48426177     0.51146125     35.297904      28.913374      27.605503      28173.665      0.19          -4779.2921    
     19100   316.61509      0.48297834     0.4405135      35.327566      28.789355      27.511508      27980.795      0.191         -4766.6257    
     19200   298.45274      0.52902341     0.33133419     35.357228      29.044182      27.392127      28129.571      0.192         -5221.0551    
     19300   297.89138      0.45299681     0.39182199     35.38689       29.030415      27.27096       28015.351      0.193         -4470.7309    
     19400   308.97609      0.21939697     0.58444596     35.416552      28.77028       27.321435      27839.016      0.194         -2165.2798    
     19500   302.87286      0.37131322     0.46986444     35.446214      28.66739       27.432222      27875.264      0.195         -3664.5766    
     19600   295.99095      0.47481723     0.50204301     35.475876      28.853899      27.435878      28083.841      0.196         -4686.0818    
     19700   300.89013      0.39081246     0.4612243      35.505538      29.078169      27.276198      28160.93       0.197         -3857.0191    
     19800   303.48789      0.37756772     0.34182526     35.535201      29.03092       26.989339      27842.73       0.198         -3726.3037    
     19900   295.38842      0.35784509     0.5590844      35.564863      28.85309       27.14203       27851.962      0.199         -3531.6564    
     20000   301.75202     -0.10696407     0.41931659     35.594525      29.098932      26.999347      27964.916      0.2            1055.6533    
     20100   303.95561      0.24456268     0.47331411     35.624187      29.020864      27.137971      28056.447      0.201         -2413.646     
     20200   295.13898      0.18703833     0.468613       35.653849      29.061323      27.05078       28028.611      0.202         -1845.9248    
     20300   301.74341      0.2878448      0.37029846     35.683511      29.152969      27.064974      28155.159      0.203         -2840.8073    
     20400   306.94051      0.46115193     0.39038396     35.713173      29.117071      27.024432      28101.707      0.204         -4551.2157    
     20500   293.4124       0.28246534     0.41115448     35.742835      29.029374      26.98972       28004.321      0.205         -2787.7161    
     20600   308.42934      0.55189727     0.47252251     35.772497      28.995502      27.093607      28102.613      0.206         -5446.8026    
     20700   301.94705      0.8501216      0.50347586     35.802159      28.888381      27.086878      28015.048      0.207         -8390.0479    
     20800   302.92854      0.59536433     0.51395036     35.831822      29.025193      26.985946      28066.073      0.208         -5875.7891    
     20900   296.39042      0.75977721     0.61046803     35.861484      28.981673      26.900213      27958.085      0.209         -7498.4181    
     21000   304.08073      0.550633       0.52192943     35.891146      28.753525      26.995727      27859.509      0.21          -5434.3252    
     21100   297.73043      0.4216673      0.58088402     35.920808      28.827581      26.949174      27906.139      0.211         -4161.5327    
     21200   301.37948      0.26085934     0.53114318     35.95047       28.780753      27.093073      28032.703      0.212         -2574.4815    
     21300   295.39806      0.44098414     0.52114477     35.980132      28.588083      27.210693      27989          0.213         -4352.1751    
     21400   295.71517      0.5519972      0.57041839     36.009794      28.493279      27.106173      27811.939      0.214         -5447.7888    
     21500   301.90229      0.44032186     0.59518291     36.039456      28.647181      27.046417      27923.5        0.215         -4345.6389    
     21600   292.83701      0.69725642     0.45315556     36.069118      28.413752      27.232321      27909.29       0.216         -6881.3859    
     21700   304.7549       0.56867436     0.53290294     36.09878       28.789126      26.91508       27971.56       0.217         -5612.3796    
     21800   297.2719       0.58701888     0.54216437     36.128443      28.861996      26.803191      27948.731      0.218         -5793.4259    
     21900   295.69402      0.62796341     0.52173534     36.158105      28.942663      26.57206       27807.975      0.219         -6197.517     
     22000   300.45996      0.80332958     0.6060004      36.187767      29.049361      26.596354      27958.925      0.22          -7928.2466    
     22100   299.22637      0.68562385     0.68556536     36.217429      29.005938      26.669058      28016.393      0.221         -6766.5813    
     22200   292.89036      0.46568118     0.65708496     36.247091      29.119246      26.586304      28061.523      0.222         -4595.9159    
     22300   304.63344      0.39360801     0.51259246     36.276753      29.013322      26.748194      28152.718      0.223         -3884.6091    
     22400   297.05554      0.71130209     0.60707547     36.306415      28.839598      26.937911      28205.674      0.224         -7020.0058    
     22500   299.04146      0.39331678     0.46966352     36.336077      28.878097      26.72379       28041.721      0.225         -3881.7348    
     22600   309.09746      0.45202175     0.58242408     36.365739      28.79744       26.676628      27936.837      0.226         -4461.1078    
     22700   299.18044      0.45668671     0.62193631     36.395402      28.790357      26.674836      27950.87       0.227         -4507.1474    
     22800   300.80206      0.39133723     0.51100221     36.425064      28.722459      27.009861      28258.186      0.228         -3862.1982    
     22900   307.27755      0.54920131     0.61979973     36.454726      28.789791      26.896279      28228.289      0.229         -5420.1955    
     23000   293.09885      0.64008972     0.55640262     36.484388      28.973264      26.712185      28236.698      0.23          -6317.1944    
     23100   299.56211      0.78704929     0.64428536     36.51405       29.186149      26.608597      28356.902      0.231         -7767.5726    
     23200   297.85427      0.5756204      0.55913916     36.543712      29.006748      26.518155      28109.622      0.232         -5680.9317    
     23300   295.29846      0.4199059      0.72235715     36.573374      28.857774      26.484362      27952.289      0.233         -4144.149     
     23400   295.4539       0.48620568     0.62734735     36.603036      28.840445      26.513839      27989.277      0.234         -4798.477     
     23500   298.85388      0.41904449     0.64647891     36.632698      28.80016       26.674252      28142.071      0.235         -4135.6475    
     23600   301.99         0.51307666     0.58091219     36.66236       28.706419      26.694112      28094.087      0.236         -5063.673     
     23700   292.21679      0.56822832     0.6726797      36.692023      28.696403      26.86789       28289.982      0.237         -5607.9775    
     23800   301.89194      0.49613235     0.58552132     36.721685      28.747552      26.779144      28269.632      0.238         -4896.4456    
     23900   299.05576      0.43714554     0.68715492     36.751347      28.552426      27.038778      28372.874      0.239         -4314.291     
     24000   299.21617      0.52593521     0.62489899     36.781009      28.6905        26.823182      28305.58       0.24          -5190.5769    
     24100   295.87006      0.80346664     0.64810115     36.810671      28.784828      26.994727      28603.311      0.241         -7929.5992    
     24200   298.79706      0.68104368     0.67415235     36.840333      28.707438      26.872778      28420.424      0.242         -6721.3786    
     24300   303.05033      0.78024251     0.68551909     36.869995      28.545757      26.878195      28288.815      0.243         -7700.3948    
     24400   295.4339       0.63878663     0.71651908     36.899657      28.642634      26.834639      28361.621      0.244         -6304.3339    
     24500   302.13967      0.45461741     0.59553223     36.929319      28.728461      26.538474      28155.265      0.245         -4486.725     
     24600   301.1078       0.60603217     0.64611607     36.958982      28.622766      26.640105      28181.722      0.246         -5981.0725    
     24700   292.72295      0.73885222     0.65350669     36.988644      28.641569      26.577501      28156.545      0.247         -7291.9045    
     24800   307.13545      0.5392323      0.57747631     37.018306      28.678778      26.592067      28231.196      0.248         -5321.809     
     24900   294.7778       0.50283652     0.65270905     37.047968      28.738443      26.516515      28232.158      0.249         -4962.6106    
     25000   297.86206      0.75885776     0.75675027     37.07763       28.635987      26.577417      28218.693      0.25          -7489.3438    
     25100   306.59483      0.44236845     0.60097511     37.107292      28.518202      26.455347      27995.928      0.251         -4365.8372    
     25200   298.16508      0.63153233     0.59835502     37.136954      28.306801      26.568783      27929.859      0.252         -6232.7395    
     25300   301.84607      0.86351646     0.74508531     37.166616      28.422163      26.444717      27935.026      0.253         -8522.2449    
     25400   299.86169      0.75705513     0.65280758     37.196278      28.329337      26.716879      28152.802      0.254         -7471.5533    
     25500   293.65756      0.73076517     0.75741637     37.22594       28.39567       26.826638      28357.245      0.255         -7212.0914    
     25600   307.41188      0.36904294     0.58040468     37.255603      28.310285      26.882161      28353.065      0.256         -3642.1707    
     25700   302.78745      0.51966152     0.55232042     37.285265      28.381221      26.96156       28530.759      0.257         -5128.6604    
     25800   300.12902      0.61210817     0.51311916     37.314927      28.427607      26.814713      28444.352      0.258         -6041.038     
     25900   303.64237      0.63169559     0.56626827     37.344589      28.533251      27.073729      28848.75       0.259         -6234.3508    
     26000   299.67276      0.56414989     0.6233141      37.374251      28.357988      27.078539      28699.422      0.26          -5567.7265    
     26100   296.16003      0.47029187     0.62789998     37.403913      28.23401       26.997522      28511.07       0.261         -4641.4199    
     26200   298.58355      0.7132907      0.74104516     37.433575      28.604093      26.948943      28855.674      0.262         -7039.6319    
     26300   303.26236      0.71109062     0.65323263     37.463237      28.522114      26.823416      28661.645      0.263         -7017.9188    
     26400   297.07427      0.78667202     0.60625539     37.492899      28.389697      26.848302      28577.656      0.264         -7763.8492    
     26500   300.20067      0.81684584     0.57358139     37.522561      28.361054      26.66172       28372.853      0.265         -8061.6417    
     26600   304.66933      0.99203227     0.67192362     37.552224      28.309412      26.651116      28332.304      0.266         -9790.5973    
     26700   306.83378      0.46142544     0.65391883     37.581886      28.392383      26.385089      28153.928      0.267         -4553.915     
     26800   296.60945      0.39845436     0.69693965     37.611548      28.461847      26.509358      28378.111      0.268         -3932.4388    
     26900   298.27826      0.35828792     0.71676743     37.64121       28.2665        26.582801      28283.708      0.269         -3536.0269    
     27000   307.67449      0.73129792     0.69245114     37.670872      28.598704      26.452226      28497.991      0.27          -7217.3494    
     27100   298.35614      0.52852601     0.750441       37.700534      28.575361      26.648672      28708.784      0.271         -5216.1461    
     27200   295.53313      0.64333831     0.7355998      37.730196      28.614159      26.698359      28824.024      0.272         -6349.2554    
     27300   304.37543      0.82754224     0.69776314     37.759858      28.824715      26.494751      28837.341      0.273         -8167.2069    
     27400   298.93138      0.69766253     0.70830147     37.78952       28.543632      26.583859      28674.683      0.274         -6885.3938    
     27500   299.34248      0.72601951     0.65941542     37.819183      28.561319      26.615479      28749.129      0.275         -7165.2554    
     27600   306.27909      1.0745357      0.73282063     37.848845      28.724339      26.387795      28688.363      0.276         -10604.843    
     27700   288.61128      0.81096904     0.7104811      37.878507      28.801362      26.217458      28602.004      0.277         -8003.6421    
     27800   300.0928       0.93567562     0.71702696     37.908169      28.861685      26.483644      28975.586      0.278         -9234.4004    
     27900   298.14677      0.44033757     0.7386191      37.937831      28.814693      26.395408      28854.587      0.279         -4345.7939    
     28000   301.47321      0.80278409     0.75532049     37.967493      28.964694      26.487238      29128.461      0.28          -7922.863     
     28100   300.8261       0.64337351     0.54687554     37.997155      29.072657      26.334232      29090.853      0.281         -6349.6028    
     28200   303.86385      0.7750689      0.68817966     38.026817      29.290596      26.182576      29162.89       0.282         -7649.3353    
     28300   306.77259      0.73800626     0.69700036     38.056479      29.266913      26.177374      29156.246      0.283         -7283.5555    
     28400   297.61908      0.71274379     0.66945468     38.086141      29.226473      26.20288       29167.044      0.284         -7034.2343    
     28500   300.42488      0.7106908      0.84653174     38.115804      29.057496      26.392887      29231.438      0.285         -7013.9728    
     28600   313.2915       0.63352111     0.8356385      38.145466      28.945859      26.471224      29228.288      0.286         -6252.3672    
     28700   298.00357      0.92512042     0.64005784     38.175128      28.94321       26.662039      29459.173      0.287         -9130.2287    
     28800   302.50764      0.79829911     0.64723928     38.20479       28.614287      26.742185      29234.632      0.288         -7878.5996    
     28900   300.80611      0.85449609     0.66398856     38.234452      28.434764      26.823151      29161.798      0.289         -8433.2207    
     29000   296.55542      0.74049432     0.82990927     38.264114      28.520606      26.751055      29193.848      0.29          -7308.1107    
     29100   299.30841      0.83102494     0.74183074     38.293776      28.34451       26.943451      29244.915      0.291         -8201.5785    
     29200   293.83711      0.74609274     0.76998776     38.323438      28.333081      26.744649      29039.904      0.292         -7363.3628    
     29300   298.22931      0.64811118     0.77818454     38.3531        28.420804      26.85168       29269.028      0.293         -6396.3601    
     29400   305.14451      0.61338158     0.67747991     38.382762      28.567935      26.517967      29077.382      0.294         -6053.6055    
     29500   301.39505      0.76879778     0.77401097     38.412425      28.632337      26.631638      29290.474      0.295         -7587.4441    
     29600   299.22391      0.82604223     0.71663942     38.442087      28.681868      26.45912       29173.584      0.296         -8152.403     
     29700   304.29253      0.86644801     0.79560116     38.471749      28.487225      26.48735       29028.9        0.297         -8551.177     
     29800   302.22616      0.798685       0.82355964     38.501411      28.516303      26.384501      28968.016      0.298         -7882.4081    
     29900   297.00679      0.95077897     0.79071067     38.531073      28.61144       26.439398      29147.572      0.299         -9383.4589    
     30000   304.11648      0.92214006     0.7518126      38.560735      28.517957      26.633825      29288.508      0.3           -9100.8148    
     30100   299.0717       1.0343256      0.86532182     38.590397      28.408434      26.727923      29301.629      0.301         -10208        
     30200   299.79952      1.0617312      0.87701324     38.620059      28.387426      26.584411      29145.13       0.302         -10478.472    
     30300   297.22473      0.85221428     0.96215084     38.649721      28.60852       26.486748      29286.697      0.303         -8410.7011    
     30400   297.50688      0.63388871     0.80094395     38.679384      28.346007      26.507621      29063.117      0.304         -6255.9952    
     30500   308.48816      0.76925716     0.78017192     38.709046      28.236674      26.477604      28940.411      0.305         -7591.9779    
     30600   302.68721      0.82374078     0.82145885     38.738708      28.434995      26.320185      28992.604      0.306         -8129.6894    
     30700   300.92797      0.9070985      0.77711169     38.76837       28.695183      26.30862       29267.431      0.307         -8952.3662    
     30800   297.1924       0.93057641     0.85662132     38.798032      28.57676       26.302111      29161.73       0.308         -9184.0751    
     30900   308.07557      1.0568584      0.82598093     38.827694      28.518191      26.385923      29217.016      0.309         -10430.382    
     31000   297.58626      0.77624074     0.87501381     38.857356      28.625819      26.362841      29324.011      0.31          -7660.9004    
     31100   301.79096      0.63238068     0.77391345     38.887018      28.499091      26.335886      29186.605      0.311         -6241.112     
     31200   302.13466      0.95388856     0.89366464     38.91668       28.561773      26.481055      29434.471      0.312         -9414.1482    
     31300   302.16643      0.7367963      0.79439175     38.946342      28.513332      26.456675      29379.873      0.313         -7271.6141    
     31400   300.58474      0.7507815      0.84153528     38.976005      28.707874      26.187086      29301.207      0.314         -7409.6373    
     31500   298.02803      0.9190381      0.90507773     39.005667      28.666786      26.148305      29238.174      0.315         -9070.2009    
     31600   298.89562      0.78053353     0.7875975      39.035329      28.627839      26.230627      29312.65       0.316         -7703.267     
     31700   311.70012      0.51424946     0.84778924     39.064991      28.766822      26.146717      29383.044      0.317         -5075.2476    
     31800   295.38414      0.6771624      0.95770633     39.094653      28.628781      26.260748      29391.876      0.318         -6683.0733    
     31900   292.46844      0.96397043     0.76172562     39.124315      28.680639      26.426369      29653.302      0.319         -9513.6485    
     32000   297.30056      0.67240283     0.86455654     39.153977      28.506881      26.395682      29461.746      0.32          -6636.0999    
     32100   293.96433      0.74421459     0.882829       39.183639      28.495452      26.434612      29515.712      0.321         -7344.8269    
     32200   299.07704      0.96484669     0.83490613     39.213301      28.679292      26.321628      29601.559      0.322         -9522.2965    
     32300   303.49612      0.47696793     0.99218272     39.242964      28.652358      26.364037      29643.814      0.323         -4707.3074    
     32400   292.54448      0.70884986     0.7497195      39.272626      28.555088      26.43806       29648.52       0.324         -6995.8042    
     32500   299.87594      0.61372563     0.91869214     39.302288      28.885303      26.329         29890.22       0.325         -6057.001     
     32600   304.43238      0.9324433      0.80952108     39.33195       28.86783       26.137122      29676.822      0.326         -9202.4999    
     32700   294.83671      1.0000105      0.90466113     39.361612      28.66322       26.118074      29467.209      0.327         -9869.3367    
     32800   297.85814      0.89857136     0.90541482     39.391274      28.652468      26.116273      29476.32       0.328         -8868.2099    
     32900   308.23212      1.0730024      0.86822706     39.420936      28.772611      26.101899      29605.903      0.329         -10589.71     
     33000   304.25584      0.86499349     0.98700537     39.450598      28.602842      26.122711      29476.846      0.33          -8536.822     
     33100   291.30763      0.82591183     0.84702276     39.48026       28.729542      26.025447      29519.357      0.331         -8151.116     
     33200   302.79399      0.65673206     0.87539707     39.509922      28.518405      25.939751      29227.873      0.332         -6481.4415    
     33300   298.02251      1.0243239      0.96074862     39.539585      28.595442      25.886578      29268.709      0.333         -10109.291    
     33400   298.3677       1.0493881      0.9014114      39.569247      28.297805      25.872059      28969.536      0.334         -10356.656    
     33500   305.56848      0.8770112      1.0067511      39.598909      28.33392       25.888446      29046.637      0.335         -8655.4276    
     33600   296.79161      0.93442401     0.90533631     39.628571      28.347868      25.914604      29112.09       0.336         -9222.0479    
     33700   301.68521      1.0119395      0.89617596     39.658233      28.346883      25.783739      28985.752      0.337         -9987.0666    
     33800   303.29018      1.033638       0.91369853     39.687895      28.208717      25.955788      29058.662      0.338         -10201.214    
     33900   304.69746      0.85705871     0.97187476     39.717557      28.220507      26.006057      29148.879      0.339         -8458.5119    
     34000   294.63538      1.0403613      0.97919252     39.747219      28.262866      26.072137      29288.664      0.34          -10267.567    
     34100   299.7914       0.84847784     0.98053124     39.776881      28.440905      26.286954      29738.181      0.341         -8373.8252    
     34200   295.72552      0.95878605     0.93424277     39.806543      28.271973      26.414777      29727.441      0.342         -9462.4826    
     34300   301.02937      1.0638055      1.0214777      39.836206      28.257775      26.263887      29564.799      0.343         -10498.944    
     34400   303.97494      0.97455875     0.88488368     39.865868      27.988629      26.491171      29558.61       0.344         -9618.1471    
     34500   293.9633       1.1269277      0.99442434     39.89553       28.074786      26.366604      29532.137      0.345         -11121.912    
     34600   294.75766      1.1871043      1.0686259      39.925192      28.001838      26.306926      29410.584      0.346         -11715.809    
     34700   301.3413       1.1955217      1.0427162      39.954854      27.760767      26.247935      29113.616      0.347         -11798.882    
     34800   302.04766      1.0050167      0.96346423     39.984516      27.848424      26.165619      29135.568      0.348         -9918.7441    
     34900   300.24177      0.72202947     0.99229746     40.014178      27.854185      26.221877      29225.916      0.349         -7125.8769    
     35000   290.62803      0.97064577     1.0342775      40.04384       28.041875      26.216616      29438.752      0.35          -9579.529     
     35100   306.82309      1.0824971      1.1287787      40.073502      28.240337      25.778418      29173.158      0.351         -10683.416    
     35200   300.8412       1.2372793      1.0821512      40.103165      28.06034       25.817907      29053.109      0.352         -12210.997    
     35300   301.0866       1.2162793      1.0979039      40.132827      28.222373      25.736452      29150.227      0.353         -12003.743    
     35400   305.25501      1.1186028      1.04342        40.162489      28.195997      25.77372       29186.712      0.354         -11039.751    
     35500   300.34044      1.1897749      1.1114832      40.192151      28.345575      25.761068      29348.802      0.355         -11742.165    
     35600   298.63446      1.0898011      1.0123163      40.221813      28.558223      25.857825      29701.94       0.356         -10755.501    
     35700   306.73242      1.251371       0.99700087     40.251475      28.442424      25.933142      29689.545      0.357         -12350.072    
     35800   292.64662      1.0672581      1.0620775      40.281137      28.306939      25.853402      29478.972      0.358         -10533.019    
     35900   299.98394      1.1095611      1.137574       40.310799      28.153575      25.972199      29475.67       0.359         -10950.516    
     36000   307.52837      1.1244092      1.1124559      40.340461      27.989131      25.942373      29291.389      0.36          -11097.056    
     36100   293.37083      1.1598661      1.1234161      40.370123      28.206764      25.82324       29405.196      0.361         -11446.988    
     36200   297.96526      0.99010872     1.1530177      40.399786      28.181471      25.949164      29543.782      0.362         -9771.6134    
     36300   298.83384      1.1604339      1.0520851      40.429448      28.187183      25.857067      29466.513      0.363         -11452.592    
     36400   298.00542      0.93502096     1.0600253      40.45911       28.205357      25.716293      29346.498      0.364         -9227.9394    
     36500   291.65596      0.96038271     1.112528       40.488772      28.199605      25.740611      29389.79       0.365         -9478.2404    
     36600   304.16609      1.4579428      1.1468721      40.518434      28.451343      25.869153      29822.061      0.366         -14388.776    
     36700   297.30601      0.92066405     1.0714714      40.548096      28.405957      25.794503      29710.302      0.367         -9086.2478    
     36800   304.97491      1.1331577      1.0632299      40.577758      28.365431      25.804914      29701.6        0.368         -11183.397    
     36900   297.65185      1.1691295      1.1424415      40.60742       28.211964      26.003131      29789.579      0.369         -11538.411    
     37000   301.26366      1.5000871      1.123022       40.637082      28.155614      25.99619       29743.852      0.37          -14804.709    
     37100   296.4831       1.2250792      1.0936482      40.666744      28.326935      25.927276      29867.293      0.371         -12090.592    
     37200   306.22222      0.92481644     1.1711655      40.696407      28.340021      25.737384      29683.878      0.372         -9127.2286    
     37300   305.74988      1.0784484      1.1425398      40.726069      28.423425      25.533458      29556.876      0.373         -10643.458    
     37400   296.26166      1.2572123      1.1447309      40.755731      28.093973      25.65492       29374.637      0.374         -12407.721    
     37500   299.08233      1.3117033      1.1006445      40.785393      27.983705      25.790572      29435.461      0.375         -12945.505    
     37600   306.48378      1.2543515      1.1456205      40.815055      28.288445      25.605508      29563.978      0.376         -12379.487    
     37700   304.70037      1.0812198      1.222054       40.844717      28.341399      25.669978      29715.475      0.377         -10670.81     
     37800   296.9585       1.0728258      1.1218193      40.874379      28.180539      25.637689      29531.08       0.378         -10587.968    
     37900   297.66417      1.2473374      1.2406384      40.904041      28.327643      25.590406      29651.989      0.379         -12310.263    
     38000   302.48899      1.1037911      1.162657       40.933703      28.636351      25.551807      29951.622      0.38          -10893.572    
     38100   305.76293      1.0606784      1.1634072      40.963366      28.613311      25.629412      30040.171      0.381         -10468.082    
     38200   296.40563      1.2089295      1.2067057      40.993028      28.377763      25.650206      29838.638      0.382         -11931.206    
     38300   305.43071      0.95388178     1.2747812      41.02269       28.398599      25.697534      29937.291      0.383         -9414.0812    
     38400   301.02986      1.2178437      1.2305434      41.052352      28.390557      25.67188       29920.554      0.384         -12019.183    
     38500   302.58128      1.3085061      1.2167461      41.082014      28.231726      25.639475      29737.078      0.385         -12913.951    
     38600   307.97988      1.0947799      1.1086489      41.111676      28.221         25.846672      29987.635      0.386         -10804.637    
     38700   297.80129      1.2946901      1.214443       41.141338      28.224929      25.787891      29945.192      0.387         -12777.598    
     38800   293.13906      1.2152259      1.2251639      41.171         28.262713      25.804986      30026.788      0.388         -11993.347    
     38900   301.22006      0.99656253     1.0978377      41.200662      28.272546      25.819015      30075.219      0.389         -9835.3075    
     39000   299.46297      1.2462713      1.1555105      41.230324      28.545245      25.903726      30486.865      0.39          -12299.741    
     39100   298.96769      1.467283       1.1704259      41.259987      28.507544      25.797241      30343.254      0.391         -14480.957    
     39200   304.01146      1.35624        1.1470626      41.289649      28.50755       25.672454      30218.192      0.392         -13385.048    
     39300   305.97563      1.3985965      1.1997545      41.319311      28.600692      25.51666       30154.59       0.393         -13803.074    
     39400   292.34564      1.4658106      1.2490574      41.348973      28.620627      25.547791      30234.113      0.394         -14466.426    
     39500   296.53316      1.4108429      1.3071732      41.378635      28.686834      25.602529      30390.766      0.395         -13923.937    
     39600   305.85903      1.3660934      1.2728914      41.408297      28.640061      25.60418       30364.922      0.396         -13482.294    
     39700   300.10732      1.0227467      1.2248674      41.437959      28.667767      25.612353      30425.78       0.397         -10093.725    
     39800   299.99253      1.4129746      1.1624223      41.467621      28.515917      25.735436      30431.824      0.398         -13944.975    
     39900   303.64726      1.1080809      1.2178309      41.497283      28.585545      25.610774      30380.076      0.399         -10935.909    
     40000   301.26911      1.1461987      1.1312082      41.526946      28.538118      25.628404      30372.243      0.4           -11312.101    
     40100   301.82415      1.1973539      1.3012064      41.556608      28.340769      25.684855      30250.241      0.401         -11816.964    
     40200   301.88742      1.2654535      1.3154532      41.58627       28.422764      25.70788       30386.63       0.402         -12489.055    
     40300   293.9707       1.1580118      1.2025751      41.615932      28.524574      25.700939      30508.986      0.403         -11428.688    
     40400   288.04031      1.0290636      1.2708937      41.645594      28.367873      25.659716      30314.309      0.404         -10156.068    
     40500   294.95352      1.2708826      1.2178906      41.675256      28.256674      25.777267      30355.416      0.405         -12542.636    
     40600   298.44881      0.99281339     1.2996379      41.704918      28.254706      25.463034      30004.625      0.406         -9798.3064    
     40700   298.7769       1.3447136      1.3225174      41.73458       28.312367      25.574253      30218.659      0.407         -13271.292    
     40800   296.15205      1.2894292      1.2974699      41.764242      28.347153      25.448051      30127.881      0.408         -12725.676    
     40900   296.74884      1.4839772      1.4196946      41.793904      28.360422      25.536096      30267.75       0.409         -14645.716    
     41000   298.67597      1.3944845      1.3970926      41.823567      28.207863      25.557765      30151.861      0.41          -13762.492    
     41100   294.69403      1.2033798      1.2846775      41.853229      28.487499      25.53428       30444.364      0.411         -11876.435    
     41200   299.78027      1.3759278      1.2911529      41.882891      28.687162      25.502841      30641.696      0.412         -13579.351    
     41300   302.47934      1.4650298      1.3356312      41.912553      28.629762      25.597704      30715.873      0.413         -14458.72     
     41400   292.98729      1.1583036      1.3582793      41.942215      28.751037      25.543091      30801.959      0.414         -11431.568    
     41500   304.95558      1.3774794      1.3710183      41.971877      28.791378      25.546781      30871.449      0.415         -13594.665    
     41600   308.65422      1.4026943      1.4579995      42.001539      28.492682      25.678981      30730.974      0.416         -13843.516    
     41700   300.20545      1.359181       1.3431562      42.031201      28.380784      25.821402      30801.793      0.417         -13414.073    
     41800   304.08081      1.4563887      1.4012524      42.060863      28.187455      25.720272      30493.664      0.418         -14373.439    
     41900   301.43956      1.6575603      1.4608284      42.090525      28.234132      25.747534      30598.097      0.419         -16358.849    
     42000   295.79915      1.2864255      1.3001835      42.120188      28.017535      25.60105       30211.898      0.42          -12696.032    
     42100   302.53606      1.6075982      1.4166519      42.14985       27.892106      25.732701      30252.601      0.421         -15865.761    
     42200   310.67694      1.5636133      1.483387       42.179512      27.867983      25.737821      30253.726      0.422         -15431.664    
     42300   299.57408      1.1201247      1.3679015      42.209174      27.822741      25.806596      30306.619      0.423         -11054.772    
     42400   298.41946      1.1868914      1.4257609      42.238836      27.829436      25.789719      30315.375      0.424         -11713.708    
     42500   306.46677      1.5383785      1.4404619      42.268498      27.768592      25.825646      30312.508      0.425         -15182.616    
     42600   302.29721      1.4471406      1.4912786      42.29816       28.022004      25.546602      30279.856      0.426         -14282.168    
     42700   301.90463      1.3622725      1.4535321      42.327822      28.033016      25.642339      30426.597      0.427         -13444.584    
     42800   304.3901       1.3648324      1.4335676      42.357484      28.161739      25.590641      30526.063      0.428         -13469.849    
     42900   296.88577      1.5818148      1.331423       42.387147      28.027779      25.769239      30614.308      0.429         -15611.299    
     43000   300.27026      1.9291047      1.4647476      42.416809      28.202496      25.602691      30627.473      0.43          -19038.783    
     43100   304.5494       1.7330272      1.5301654      42.446471      28.380936      25.479634      30694.565      0.431         -17103.649    
     43200   297.8497       1.5902878      1.5016032      42.476133      28.248182      25.583962      30697.519      0.432         -15694.921    
     43300   291.32343      1.5563315      1.4093758      42.505795      28.107608      25.666036      30664.143      0.433         -15359.798    
     43400   300.85104      1.6677739      1.5656472      42.535457      28.227193      25.489817      30604.516      0.434         -16459.649    
     43500   304.44598      1.4854653      1.479058       42.565119      28.209865      25.593424      30731.464      0.435         -14660.403    
     43600   298.82251      1.3611327      1.5777637      42.594781      28.226252      25.451168      30599.711      0.436         -13433.335    
     43700   292.18911      1.7083007      1.5882421      42.624443      28.224919      25.345809      30492.82       0.437         -16859.617    
     43800   298.83473      1.5886736      1.5965474      42.654105      28.210247      25.388304      30549.311      0.438         -15678.989    
     43900   308.2314       1.5872587      1.5271675      42.683768      28.312067      25.362831      30650.112      0.439         -15665.026    
     44000   298.74178      1.6610666      1.6408513      42.71343       28.317156      25.358478      30671.659      0.44          -16393.453    
     44100   299.6933       1.7685357      1.5849299      42.743092      28.392178      25.396821      30820.806      0.441         -17454.09     
     44200   301.45071      1.7867374      1.5848285      42.772754      28.051301      25.444168      30528.712      0.442         -17633.727    
     44300   304.65927      1.7932964      1.680399       42.802416      28.157177      25.476139      30703.721      0.443         -17698.46     
     44400   302.68656      1.6894245      1.6080434      42.832078      28.125814      25.394508      30592.436      0.444         -16673.323    
     44500   299.19813      1.7158042      1.5512978      42.86174       28.162942      25.367389      30621.298      0.445         -16933.671    
     44600   299.05834      1.9398866      1.56439        42.891402      28.278394      25.352573      30750.135      0.446         -19145.193    
     44700   308.41959      1.8398696      1.654239       42.921064      28.213261      25.225969      30547.215      0.447         -18158.101    
     44800   299.85625      1.733439       1.5974889      42.950727      28.225614      25.306456      30679.286      0.448         -17107.712    
     44900   295.94835      1.1934656      1.5604806      42.980389      28.308346      25.218344      30683.253      0.449         -11778.589    
     45000   298.52607      1.6759424      1.6033785      43.010051      28.443316      25.103694      30710.565      0.45          -16540.265    
     45100   298.63111      1.5995118      1.6464944      43.039713      28.427613      25.182462      30811.153      0.451         -15785.955    
     45200   298.83155      1.7358058      1.6595238      43.069375      28.519602      24.981746      30685.614      0.452         -17131.071    
     45300   301.18682      1.5714291      1.6892037      43.099037      28.404485      25.130577      30765.002      0.453         -15508.799    
     45400   296.60513      1.6086223      1.6584117      43.128699      27.964738      25.269488      30477.094      0.454         -15875.868    
     45500   301.27427      1.7056131      1.7746447      43.158361      28.131382      25.307869      30726.393      0.455         -16833.092    
     45600   303.76751      1.5233568      1.6466772      43.188023      28.395247      25.172693      30870.143      0.456         -15034.363    
     45700   294.29053      1.4636369      1.6009055      43.217685      28.467285      24.999627      30756.795      0.457         -14444.974    
     45800   299.58869      2.0300697      1.7370365      43.247348      28.35878       25.197926      30903.795      0.458         -20035.23     
     45900   298.72654      1.4932763      1.7017451      43.27701       28.322128      25.112163      30779.903      0.459         -14737.491    
     46000   297.26912      1.7265696      1.716706       43.306672      28.394795      25.114794      30883.261      0.46          -17039.917    
     46100   292.06511      1.7165398      1.6622739      43.336334      28.46928       25.078481      30940.682      0.461         -16940.931    
     46200   303.39653      1.7599354      1.6296353      43.365996      28.255574      25.067132      30715.537      0.462         -17369.212    
     46300   300.26181      1.6737759      1.7255023      43.395658      28.395637      24.83897       30607.755      0.463         -16518.884    
     46400   308.74395      1.7529533      1.7874339      43.42532       28.413184      24.815649      30618.829      0.464         -17300.304    
     46500   295.556        1.8073339      1.6855891      43.454982      28.533957      24.758957      30699.685      0.465         -17836.999    
     46600   299.21532      1.6455958      1.7490805      43.484644      28.645543      24.642059      30695.165      0.466         -16240.768    
     46700   290.45498      1.8346331      1.6925786      43.514306      28.56036       24.808766      30831.943      0.467         -18106.421    
     46800   303.92363      1.8451754      1.7167623      43.543969      28.751713      24.665863      30880.764      0.468         -18210.465    
     46900   296.49608      1.5158588      1.7150851      43.573631      28.50823       24.69884       30681.075      0.469         -14960.363    
     47000   300.77283      1.8388684      1.7505508      43.603293      28.546317      24.604026      30624.961      0.47          -18148.22     
     47100   302.46972      1.9482078      1.8388159      43.632955      28.709175      24.490165      30678.001      0.471         -19227.316    
     47200   298.18565      1.8581294      1.8888063      43.662617      28.331506      24.458975      30256.429      0.472         -18338.312    
     47300   303.2034       2.1077074      1.9260046      43.692279      28.246733      24.520203      30261.955      0.473         -20801.455    
     47400   297.61512      2.0156922      1.9748418      43.721941      28.364606      24.604269      30513.123      0.474         -19893.335    
     47500   299.86884      1.856724       1.8551357      43.751603      28.39761       24.640785      30614.721      0.475         -18324.441    
     47600   300.49763      1.7817454      1.8096759      43.781265      28.424588      24.380095      30340.161      0.476         -17584.46     
     47700   297.64336      2.0332516      1.9571254      43.810928      28.448071      24.521073      30561.505      0.477         -20066.633    
     47800   304.42214      1.8268865      1.9689109      43.84059       28.483207      24.259908      30293.847      0.478         -18029.968    
     47900   302.84563      2.0302488      1.9676729      43.870252      28.487608      24.138083      30166.775      0.479         -20036.998    
     48000   305.07463      1.9753105      2.1245084      43.899914      28.473054      24.224542      30279.82       0.48          -19494.799    
     48100   296.49497      2.0035477      1.9341915      43.929576      28.2784        24.233569      30104.347      0.481         -19773.479    
     48200   299.27012      2.02707        1.9010661      43.959238      28.307415      24.114244      30007.1        0.482         -20005.625    
     48300   298.64438      2.0279772      1.896537       43.9889        28.552596      24.103846      30274.365      0.483         -20014.579    
     48400   305.26267      2.0775498      1.9777264      44.018562      28.631802      24.29569       30620.606      0.484         -20503.822    
     48500   300.76343      2.0065889      1.9366336      44.048224      28.7288        24.208991      30635.331      0.485         -19803.493    
     48600   305.30092      2.0932066      1.9559333      44.077886      28.662663      24.29114       30689.174      0.486         -20658.343    
     48700   302.33261      1.8660359      2.0709787      44.107549      28.608495      24.188156      30521.838      0.487         -18416.342    
     48800   297.08892      2.0089134      2.0075695      44.137211      28.504675      24.201916      30448.838      0.488         -19826.434    
     48900   298.86369      2.1778393      2.0191507      44.166873      28.709272      24.125124      30590.627      0.489         -21493.602    
     49000   303.26972      2.2139659      2.1682594      44.196535      28.733748      23.899508      30350.753      0.49          -21850.144    
     49100   297.21034      2.2272222      2.1869873      44.226197      28.790993      23.873214      30398.147      0.491         -21980.974    
     49200   302.96821      1.9665445      2.088039       44.255859      28.677164      23.978946      30432.46       0.492         -19408.286    
     49300   293.13984      2.3057685      2.0227949      44.285521      28.936674      23.941243      30680.121      0.493         -22756.166    
     49400   296.95771      2.1664313      2.1391923      44.315183      28.739878      24.043582      30622.218      0.494         -21381.014    
     49500   307.45087      2.1217407      2.15393        44.344845      28.453048      24.162325      30486.717      0.495         -20939.953    
     49600   293.09002      2.1828557      2.0937423      44.374507      28.286541      24.136197      30295.786      0.496         -21543.11     
     49700   297.13956      1.9153586      2.2439625      44.40417       28.418168      24.080959      30387.404      0.497         -18903.119    
     49800   300.93454      2.2935271      2.0882245      44.433832      28.388138      24.209872      30538.181      0.498         -22635.353    
     49900   301.0444       2.4295657      2.3098059      44.463494      28.515556      24.115868      30576.538      0.499         -23977.949    
     50000   294.90479      2.214882       2.1053067      44.493156      28.468062      23.971786      30363.477      0.5           -21859.185    
     50100   295.46725      2.0649476      2.0902455      44.522818      28.558011      24.075601      30611.721      0.501         -20379.449    
     50200   301.33129      2.2082327      2.2684743      44.55248       28.513915      24.089575      30602.569      0.502         -21793.563    
     50300   292.94303      2.2562673      2.2820926      44.582142      28.362553      24.084716      30454.241      0.503         -22267.627    
     50400   297.46485      2.3792099      2.3360958      44.611804      28.268507      24.190546      30506.918      0.504         -23480.976    
     50500   300.6084       2.4193587      2.3331037      44.641466      28.467063      23.988066      30484.308      0.505         -23877.214    
     50600   305.90809      2.3093728      2.3194168      44.671129      28.455571      23.938627      30429.405      0.506         -22791.737    
     50700   299.68119      2.3585096      2.2553218      44.700791      28.466111      23.795014      30278.147      0.507         -23276.68     
     50800   294.42758      2.5918623      2.3684662      44.730453      28.454616      23.724793      30196.629      0.508         -25579.692    
     50900   302.96815      2.3793638      2.4207942      44.760115      28.725374      23.689956      30459.386      0.509         -23482.495    
     51000   304.87406      2.3324359      2.4128377      44.789777      28.528158      23.929241      30576.062      0.51          -23019.353    
     51100   293.01489      2.3700267      2.3512988      44.819439      28.593017      23.938391      30677.598      0.511         -23390.345    
     51200   306.14396      2.4205174      2.3910413      44.849101      28.353944      23.960702      30469.601      0.512         -23888.649    
     51300   303.24703      2.5134081      2.4647061      44.878763      28.262291      24.004346      30446.552      0.513         -24805.41     
     51400   296.97271      2.2988692      2.4310642      44.908425      28.35187       24.071152      30648.301      0.514         -22688.075    
     51500   304.25955      2.4551872      2.3825501      44.938087      28.353583      23.876218      30422.022      0.515         -24230.814    
     51600   302.24901      2.3367126      2.4029513      44.96775       28.310652      23.938622      30475.453      0.516         -23061.56     
     51700   294.06301      2.2934817      2.3894875      44.997412      28.511604      23.828104      30570.227      0.517         -22634.905    
     51800   302.83905      2.5546997      2.4741202      45.027074      28.507634      23.819831      30575.5        0.518         -25212.925    
     51900   301.63345      2.6388966      2.6004237      45.056736      28.462567      23.884033      30629.61       0.519         -26043.884    
     52000   304.30457      2.6512453      2.5771904      45.086398      28.535935      23.689934      30479.055      0.52          -26165.757    
     52100   300.90145      2.6078393      2.4076692      45.11606       28.352761      23.821989      30472.251      0.521         -25737.373    
     52200   301.70435      2.5535704      2.5416508      45.145722      28.267689      23.797946      30370.112      0.522         -25201.78     
     52300   294.84552      2.7923396      2.5872276      45.175384      28.572441      23.537028      30380.913      0.523         -27558.249    
     52400   292.22862      2.5228928      2.5014705      45.205046      28.713372      23.736294      30809.456      0.524         -24899.016    
     52500   308.49037      2.521547       2.4998878      45.234709      28.540574      23.744302      30654.477      0.525         -24885.734    
[...]
     87400   291.87656      11.251643      10.688854      55.586783      26.407922      21.678727      31822.884      0.874         -111045.08    
     87500   305.82734      11.092103      10.848473      55.616445      26.297784      21.535154      31497.085      0.875         -109470.54    
     87600   298.7463       11.035949      10.978407      55.646107      26.287359      21.665197      31691.617      0.876         -108916.35    
     87700   297.1836       10.558536      10.848058      55.675769      26.296748      21.685949      31750.218      0.877         -104204.65    
     87800   293.9203       10.889935      10.834343      55.705431      26.49435       21.641163      31939.742      0.878         -107475.31    
     87900   303.41695      11.019429      10.869959      55.735093      26.433545      21.494834      31667.826      0.879         -108753.31    
     88000   294.147        11.097709      11.013952      55.764755      26.381827      21.489042      31614.166      0.88          -109525.87    
     88100   297.84576      11.038014      11.055938      55.794418      26.607328      21.360032      31709.83       0.881         -108936.73    
     88200   296.69655      11.252197      11.052157      55.82408       26.518212      21.464113      31774.502      0.882         -111050.55    
     88300   301.84342      11.324807      11.046821      55.853742      26.378579      21.448945      31601.639      0.883         -111767.16    
     88400   290.27714      11.26674       11.134133      55.883404      26.467545      21.382459      31626.72       0.884         -111194.08    
     88500   303.78891      11.206719      11.162451      55.913066      26.425067      21.266913      31422.003      0.885         -110601.72    
     88600   296.13301      11.205198      11.21785       55.942728      26.573367      21.322165      31697.246      0.886         -110586.71    
     88700   299.23809      11.227038      11.154322      55.97239       26.637688      21.380737      31878.146      0.887         -110802.25    
     88800   298.37171      11.213786      11.174863      56.002052      26.62562       21.365573      31857.978      0.888         -110671.46    
     88900   305.82177      11.430878      11.284436      56.031714      26.543643      21.443269      31892.271      0.889         -112813.99    
     89000   298.35812      11.440242      11.340078      56.061376      26.476383      21.397122      31759.802      0.89          -112906.41    
     89100   300.75263      11.463193      11.364277      56.091039      26.361669      21.234659      31398.7        0.891         -113132.92    
     89200   305.0781       11.529988      11.540682      56.120701      26.278497      21.255419      31346.804      0.892         -113792.13    
     89300   300.87865      11.735109      11.564286      56.150363      26.309461      21.540208      31821.043      0.893         -115816.53    
     89400   295.7497       11.702072      11.565074      56.180025      26.403668      21.555815      31975.007      0.894         -115490.47    
     89500   305.25355      11.552258      11.406323      56.209687      26.379233      21.509133      31893.063      0.895         -114011.92    
     89600   297.83624      11.595244      11.396726      56.239349      26.434928      21.515999      31987.472      0.896         -114436.16    
     89700   297.00819      11.384524      11.587604      56.269011      26.24349       21.381665      31574.202      0.897         -112356.52    
     89800   297.67958      11.520275      11.481113      56.298673      26.225685      21.629064      31934.691      0.898         -113696.27    
     89900   299.63092      11.384182      11.554674      56.328335      26.373024      21.560776      32029.579      0.899         -112353.14    
     90000   291.4351       11.775892      11.61715       56.357997      26.525485      21.404524      31998.12       0.9           -116219.02    
     90100   298.51066      11.952286      11.667109      56.38766       26.300542      21.531855      31932.302      0.901         -117959.89    
     90200   303.37913      11.820773      11.68349       56.417322      26.304276      21.4357        31810.939      0.902         -116661.96    
     90300   296.74472      11.584117      11.673409      56.446984      26.384767      21.509793      32035.406      0.903         -114326.35    
     90400   299.78346      11.942825      11.782044      56.476646      26.324776      21.469971      31920.158      0.904         -117866.52    
     90500   299.01003      11.766792      11.819032      56.506308      26.41117       21.389507      31921.652      0.905         -116129.21    
     90600   295.85078      12.031824      11.883364      56.53597       26.368644      21.299746      31753.169      0.906         -118744.87    
     90700   304.09434      12.173751      11.899717      56.565632      26.327992      21.20247       31575.98       0.907         -120145.58    
     90800   302.39538      11.997834      11.9633        56.595294      26.375778      21.31341       31815.484      0.908         -118409.42    
     90900   298.80192      11.95622       12.010665      56.624956      26.425113      21.350201      31946.751      0.909         -117998.71    
     91000   297.156        11.99654       12.028527      56.654619      26.427598      21.355212      31973.995      0.91          -118396.65    
     91100   304.56935      12.055022      12.089911      56.684281      26.293357      21.209245      31610.684      0.911         -118973.82    
     91200   298.13586      12.043032      12.131543      56.713943      26.488753      21.186974      31828.801      0.912         -118855.48    
     91300   301.49322      12.490311      12.104379      56.743605      26.544834      21.187596      31913.808      0.913         -123269.79    
     91400   299.48228      12.298901      12.195337      56.773267      26.721962      21.282832      32288.037      0.914         -121380.71    
     91500   291.83788      12.238097      12.124116      56.802929      26.349821      21.275526      31844.079      0.915         -120780.63    
     91600   310.29905      12.188879      12.351357      56.832591      26.302356      21.264459      31786.773      0.916         -120294.88    
     91700   297.52065      12.372999      12.284153      56.862253      26.22361       21.263998      31707.461      0.917         -122112.01    
     91800   288.31562      12.227651      12.442685      56.891915      26.13406       21.279736      31639.068      0.918         -120677.54    
     91900   300.76976      12.338513      12.486552      56.921577      26.402145      21.160528      31801.136      0.919         -121771.66    
     92000   307.7523       12.517414      12.408069      56.95124       26.361682      21.302132      31981.54       0.92          -123537.28    
     92100   295.81101      12.541626      12.504779      56.980902      26.214046      21.310889      31832.074      0.921         -123776.22    
     92200   296.88653      12.42806       12.536952      57.010564      26.243902      21.329945      31913.429      0.922         -122655.42    
     92300   302.02754      12.51667       12.604524      57.040226      26.112518      21.405239      31882.332      0.923         -123529.93    
     92400   304.34456      12.543661      12.618358      57.069888      26.281517      21.327299      31988.458      0.924         -123796.31    
     92500   306.13191      12.591315      12.528964      57.09955       26.219893      21.424394      32075.405      0.925         -124266.62    
     92600   303.15192      12.471819      12.547389      57.129212      26.086081      21.363587      31837.668      0.926         -123087.28    
     92700   300.73625      12.606232      12.64646       57.158874      26.196189      21.452116      32121.211      0.927         -124413.84    
     92800   307.5944       12.564638      12.592184      57.188536      26.31162       21.398143      32198.279      0.928         -124003.34    
     92900   294.33505      12.809556      12.662066      57.218198      26.246566      21.205012      31845.288      0.929         -126420.49    
     93000   302.43587      12.635505      12.898075      57.247861      26.105269      21.161749      31625.615      0.93          -124702.74    
     93100   303.89557      12.838972      12.986348      57.277523      26.214449      21.025265      31569.408      0.931         -126710.81    
     93200   306.25507      12.940915      12.946275      57.307185      26.118408      21.191078      31718.222      0.932         -127716.9     
     93300   309.81143      12.943211      12.936         57.336847      26.178717      21.25461       31903.278      0.933         -127739.56    
     93400   301.5895       12.906244      13.007275      57.366509      26.124297      21.216817      31796.788      0.934         -127374.73    
     93500   298.03332      12.687159      13.00698       57.396171      26.08269       21.228449      31779.977      0.935         -125212.53    
     93600   300.23748      13.109672      13.028261      57.425833      26.212823      21.285661      32041.161      0.936         -129382.41    
     93700   306.21705      13.214261      13.087722      57.455495      25.97727       21.401409      31942.393      0.937         -130414.62    
     93800   308.76322      12.854657      13.067031      57.485157      26.016327      21.424579      32041.585      0.938         -126865.61    
     93900   302.01782      13.156137      13.130682      57.51482       26.395592      21.192586      32173.264      0.939         -129840.98    
     94000   297.90042      13.025358      13.12291       57.544482      26.463877      21.233355      32335.216      0.94          -128550.29    
     94100   301.68532      13.144622      13.127197      57.574144      26.434158      21.148035      32185.701      0.941         -129727.33    
     94200   299.96786      13.389186      13.263806      57.603806      26.088918      21.194419      31851.418      0.942         -132140.99    
     94300   298.54311      13.704444      13.332582      57.633468      26.096544      21.209568      31899.919      0.943         -135252.35    
     94400   303.1361       13.431428      13.375452      57.66313       25.910311      21.350847      31899.652      0.944         -132557.89    
     94500   297.99885      13.38877       13.310664      57.692792      26.059729      21.341923      32086.696      0.945         -132136.89    
     94600   299.74605      13.380787      13.356367      57.722454      26.177785      21.329306      32229.562      0.946         -132058.1     
     94700   307.60279      12.950657      13.283173      57.752116      26.199241      21.367935      32331.003      0.947         -127813.05    
     94800   296.27078      13.140423      13.291425      57.781778      26.20567       21.373087      32363.347      0.948         -129685.89    
     94900   301.82215      13.478358      13.461504      57.811441      26.014635      21.26845       31986.548      0.949         -133021.05    
     95000   306.42974      13.574538      13.658712      57.841103      26.24407       21.091154      32016.076      0.95          -133970.27    
     95100   292.88399      13.625827      13.649083      57.870765      26.10004       21.147981      31942.529      0.951         -134476.45    
     95200   301.94051      13.441271      13.624672      57.900427      25.984633      21.312212      32064.678      0.952         -132655.03    
     95300   296.27863      13.809429      13.609866      57.930089      26.211425      21.242364      32255.047      0.953         -136288.47    
     95400   290.88695      13.719694      13.64963       57.959751      26.068463      21.361809      32276.019      0.954         -135402.85    
     95500   302.09329      13.705312      13.730655      57.989413      25.954835      21.410213      32224.633      0.955         -135260.91    
     95600   309.40289      13.801851      13.692691      58.019075      25.951978      21.242502      31985.043      0.956         -136213.68    
     95700   296.24956      13.681702      13.752665      58.048737      25.972065      21.268909      32065.977      0.957         -135027.9     
     95800   300.73291      13.705352      13.840615      58.0784        26.121665      21.206392      32172.312      0.958         -135261.31    
     95900   305.16589      13.91708       13.800855      58.108062      26.089489      21.269702      32245.074      0.959         -137350.9     
     96000   300.00844      14.046859      13.886838      58.137724      26.0757        21.233751      32189.981      0.96          -138631.72    
     96100   299.70602      13.968847      13.980415      58.167386      26.109647      21.191778      32184.586      0.961         -137861.8     
     96200   298.0875       14.097346      14.001641      58.197048      25.999505      21.162024      32020.141      0.962         -139129.99    
     96300   304.15476      14.06833       13.976622      58.22671       26.114811      21.086525      32063.738      0.963         -138843.62    
     96400   306.41021      14.071457      14.120858      58.256372      26.00218       20.962612      31754.011      0.964         -138874.48    
     96500   301.67203      14.035188      14.179592      58.286034      26.141292      21.058147      32085.714      0.965         -138516.54    
     96600   303.77706      14.030892      14.101716      58.315696      26.258858      21.060126      32249.446      0.966         -138474.14    
     96700   298.95859      14.182909      14.187514      58.345358      25.982405      21.205138      32145.987      0.967         -139974.42    
     96800   306.22151      14.232059      14.279056      58.375021      26.070504      21.15502       32195.11       0.968         -140459.5     
     96900   297.69028      14.131521      14.290964      58.404683      26.082277      21.060658      32082.272      0.969         -139467.27    
     97000   294.71126      14.377812      14.261794      58.434345      26.075136      21.218592      32330.419      0.97          -141897.97    
     97100   294.07332      14.313587      14.320723      58.464007      26.103997      21.258216      32443.103      0.971         -141264.12    
     97200   302.779        14.324707      14.355511      58.493669      26.042799      21.309379      32461.405      0.972         -141373.86    
     97300   294.29327      14.165455      14.347911      58.523331      26.241233      21.17033       32511.791      0.973         -139802.17    
     97400   305.59059      14.323647      14.271786      58.552993      26.229607      21.082396      32378.807      0.974         -141363.41    
     97500   301.89305      14.625796      14.363688      58.582655      26.063759      21.228818      32413.946      0.975         -144345.38    
     97600   296.93557      14.565539      14.486765      58.612317      26.288832      20.993695      32348.121      0.976         -143750.69    
     97700   302.19863      14.494596      14.537693      58.641979      26.396638      20.989883      32491.313      0.977         -143050.54    
     97800   293.3998       14.373858      14.561239      58.671642      26.227434      20.931514      32209.552      0.978         -141858.94    
     97900   292.79927      14.841675      14.629554      58.701304      26.366474      21.006161      32512.21       0.979         -146475.95    
     98000   297.41022      14.660545      14.624763      58.730966      26.184179      21.095331      32440.867      0.98          -144688.33    
     98100   303.68207      14.45878       14.562494      58.760628      26.246967      21.095183      32534.852      0.981         -142697.07    
     98200   297.58555      14.599766      14.639297      58.79029       25.916443      21.261101      32394.161      0.982         -144088.49    
     98300   299.44029      14.933052      14.841281      58.819952      25.941927      21.066595      32145.579      0.983         -147377.76    
     98400   299.59302      14.903918      14.911032      58.849614      25.940775      21.283487      32491.469      0.984         -147090.23    
     98500   302.55096      15.001763      14.718297      58.879276      26.148438      21.18737       32620.099      0.985         -148055.89    
     98600   301.02302      15.008207      14.832707      58.908938      26.210363      21.161631      32674.08       0.986         -148119.48    
     98700   303.75196      15.236117      14.864353      58.938601      26.210303      21.160568      32688.815      0.987         -150368.79    
     98800   297.40483      15.029037      14.809054      58.968263      26.243646      21.06191       32594.194      0.988         -148325.06    
     98900   305.50665      15.15646       14.889842      58.997925      26.102692      21.144336      32562.375      0.989         -149582.63    
     99000   305.77471      15.297669      14.995825      59.027587      26.053217      21.079692      32417.584      0.99          -150976.26    
     99100   298.45029      15.028704      14.966844      59.057249      25.987789      21.185685      32515.097      0.991         -148321.78    
     99200   305.29485      14.87306       14.998771      59.086911      26.184671      21.098515      32643.017      0.992         -146785.69    
     99300   310.8808       15.148437      14.968716      59.116573      25.956992      21.13544       32432.087      0.993         -149503.45    
     99400   296.07775      15.113648      15.157941      59.146235      26.079919      21.006971      32403.863      0.994         -149160.11    
     99500   308.26242      15.153464      15.150216      59.175897      26.191983      21.070288      32657.558      0.995         -149553.06    
     99600   300.60597      15.547147      15.124675      59.205559      26.243011      20.898451      32470.595      0.996         -153438.42    
     99700   298.54417      15.275383      15.253332      59.235222      26.284384      21.058245      32786.872      0.997         -150756.31    
     99800   301.78848      15.481301      15.221677      59.264884      26.122754      21.085969      32644.496      0.998         -152788.56    
     99900   304.96223      15.48347       15.245442      59.294546      25.902322      21.156417      32493.431      0.999         -152809.97    
    100000   297.27649      15.648162      15.330217      59.324208      25.940543      21.108565      32484.017      1             -154435.35    
Loop time of 775.209 on 4 procs for 100000 steps with 2988 atoms

Performance: 11.145 ns/day, 2.153 hours/ns, 128.998 timesteps/s
261.1% CPU use with 1 MPI tasks x 4 OpenMP threads

MPI task timing breakdown:
Section |  min time  |  avg time  |  max time  |%varavg| %total
---------------------------------------------------------------
Pair    | 526.28     | 526.28     | 526.28     |   0.0 | 67.89
Bond    | 54.405     | 54.405     | 54.405     |   0.0 |  7.02
Neigh   | 92.348     | 92.348     | 92.348     |   0.0 | 11.91
Comm    | 13.508     | 13.508     | 13.508     |   0.0 |  1.74
Output  | 0.53464    | 0.53464    | 0.53464    |   0.0 |  0.07
Modify  | 86.623     | 86.623     | 86.623     |   0.0 | 11.17
Other   |            | 1.506      |            |       |  0.19

Nlocal:           2988 ave        2988 max        2988 min
Histogram: 1 0 0 0 0 0 0 0 0 0
Nghost:          13713 ave       13713 max       13713 min
Histogram: 1 0 0 0 0 0 0 0 0 0
Neighs:         995066 ave      995066 max      995066 min
Histogram: 1 0 0 0 0 0 0 0 0 0

Total # of neighbors = 995066
Ave neighs/atom = 333.02075
Ave special neighs/atom = 12.156627
Neighbor list builds = 5000
Dangerous builds = 0
unfix 1
unfix 2
unfix def1

print "All done"
All done
Total wall time: 0:12:55
