units			real
dimension		3
processors		* * *
boundary		p p p
atom_style		full
pair_style		lj/cut 10.0
bond_style		harmonic
angle_style 	harmonic
read_data		after_cross_linking_correct.data
Reading data file ...
  orthogonal box = (30.222448 27.307948 30.19145) to (59.884552 56.970052 59.853554)
  1 by 1 by 1 MPI processor grid
  reading atoms ...
  2988 atoms
  reading velocities ...
  2988 velocities
  scanning bonds ...
  4 = max bonds/atom
  scanning angles ...
  6 = max angles/atom
  reading bonds ...
  3044 bonds
  reading angles ...
  5800 angles
Finding 1-2 1-3 1-4 neighbors ...
  special bond factors lj:    0        0        0       
  special bond factors coul:  0        0        0       
     4 = max # of 1-2 neighbors
     7 = max # of 1-3 neighbors
    16 = max # of 1-4 neighbors
    20 = max # of special neighbors
  special bonds CPU = 0.004 seconds
  read_data CPU = 0.071 seconds
variable simname index ssc
variable tmp equal "lx"
variable L0 equal ${tmp}
variable L0 equal 29.6621039368179
variable strain equal "(lx - v_L0)/v_L0"
variable p1 equal "v_strain"
variable p2 equal "-pxx/10000*1.01325"
variable p3 equal "-pyy/10000*1.01325"
variable p4 equal "-pzz/10000*1.01325"
variable p5 equal "lx"
variable p6 equal "ly"
variable p7 equal "lz"
variable p8 equal "temp"

fix		1 all npt temp 300 300 50 y 0 0 1000 z 0 0 1000 drag 2
fix		2 all deform 1 x erate 1e-5 units box remap x
#${p3} ${p4} ${p5} ${p6} ${p7} ${p8}
fix def1 all print 100 "${p1} ${p2}" file ${simname}.txt screen no
fix def1 all print 100 "${p1} ${p2}" file ssc.txt screen no
thermo_style	custom step temp v_p2 pxx lx v_strain
thermo          100
timestep	1
reset_timestep	0
run		100000
Generated 153 of 153 mixed pair_coeff terms from geometric mixing rule
Last active /omp style is angle_style harmonic/omp
Neighbor list info ...
  update every 1 steps, delay 10 steps, check yes
  max neighbors/atom: 2000, page size: 100000
  master list distance cutoff = 12
  ghost atom cutoff = 12
  binsize = 6, bins = 5 5 5
  1 neighbor lists, perpetual/occasional/extra = 1 0 0
  (1) pair lj/cut/omp, perpetual
      attributes: half, newton on, omp
      pair build: half/bin/newton/omp
      stencil: half/bin/3d
      bin: standard
WARNING: Inconsistent image flags (src/domain.cpp:819)
Per MPI rank memory allocation (min/avg/max) = 27.41 | 27.41 | 27.41 Mbytes
   Step          Temp           v_p2           Pxx             Lx          v_strain   
         0   296.64116     -0.28038351     2767.1701      29.662104      5.9886407e-16
       100   303.21895     -0.045028945    444.40113      29.691766      0.001        
       200   298.89769     -0.046751176    461.39823      29.721428      0.002        
       300   301.23604     -0.089798131    886.23865      29.75109       0.003        
       400   294.75543      0.4495524     -4436.7372      29.780752      0.004        
       500   292.12929      0.25146972    -2481.8132      29.810414      0.005        
       600   301.38282      0.039908797   -393.86921      29.840077      0.006        
       700   297.73279      0.059312261   -585.36651      29.869739      0.007        
       800   301.90348      0.50847062    -5018.2149      29.899401      0.008        
       900   298.47229      0.21290281    -2101.1874      29.929063      0.009        
      1000   300.49338      0.43564222    -4299.4545      29.958725      0.01         
      1100   299.16162     -0.044654816    440.70877      29.988387      0.011        
      1200   297.19289      0.37015873    -3653.1827      30.018049      0.012        
      1300   299.87929      0.022052885   -217.64505      30.047711      0.013        
      1400   297.49443      0.088660253   -875.00867      30.077373      0.014        
      1500   298.86753      0.02146683    -211.86114      30.107035      0.015        
      1600   300.14731     -0.16639711     1642.2118      30.136698      0.016        
      1700   300.73536      0.066655961   -657.84319      30.16636       0.017        
      1800   297.19619      0.36115987    -3564.3707      30.196022      0.018        
      1900   301.06625      0.3110751     -3070.0725      30.225684      0.019        
      2000   297.96247      0.28600551    -2822.6549      30.255346      0.02         
      2100   297.79438      0.22072108    -2178.3477      30.285008      0.021        
      2200   299.14388      0.11352079    -1120.3631      30.31467       0.022        
      2300   303.43384      0.012152275   -119.93363      30.344332      0.023        
      2400   298.37843      0.19874043    -1961.4156      30.373994      0.024        
      2500   296.84198      0.33936019    -3349.2246      30.403657      0.025        
      2600   302.75303      0.095493899   -942.4515       30.433319      0.026        
      2700   297.60177      0.020126875   -198.63681      30.462981      0.027        
      2800   293.65148      0.34654291    -3420.1126      30.492643      0.028        
      2900   306.2658       0.46536895    -4592.8344      30.522305      0.029        
      3000   296.18015      0.22146422    -2185.6819      30.551967      0.03         
      3100   298.74141     -0.109309       1078.7959      30.581629      0.031        
      3200   296.71559      0.084402534   -832.98825      30.611291      0.032        
      3300   298.97772      0.44248901    -4367.027       30.640953      0.033        
      3400   300.43281      0.3127656     -3086.7564      30.670615      0.034        
      3500   300.68128      0.20188868    -1992.4864      30.700278      0.035        
      3600   305.52481      0.40769406    -4023.6276      30.72994       0.036        
      3700   301.38576     -0.10397759     1026.1791      30.759602      0.037        
      3800   306.10816      0.41606295    -4106.222       30.789264      0.038        
      3900   298.45305      0.30470486    -3007.2032      30.818926      0.039        
      4000   294.86988      0.33222877    -3278.843       30.848588      0.04         
      4100   298.49015     -0.061964025    611.53738      30.87825       0.041        
      4200   299.05492     -0.03191018     314.92899      30.907912      0.042        
      4300   299.18138      0.4169022     -4114.5049      30.937574      0.043        
      4400   300.25675      0.051230628   -505.60699      30.967237      0.044        
      4500   301.85874      0.43246182    -4268.0663      30.996899      0.045        
      4600   298.52201      0.24777645    -2445.3634      31.026561      0.046        
      4700   302.86487      0.40814467    -4028.0747      31.056223      0.047        
      4800   299.9179       0.16581139    -1636.4312      31.085885      0.048        
      4900   299.97657      0.029281636   -288.98728      31.115547      0.049        
      5000   296.2248       0.48101822    -4747.2807      31.145209      0.05         
      5100   300.05178      0.31134857    -3072.7715      31.174871      0.051        
      5200   295.48418      0.28342467    -2797.1841      31.204533      0.052        
      5300   299.75872      0.3898501     -3847.5214      31.234195      0.053        
      5400   300.07626      0.44940698    -4435.302       31.263858      0.054        
      5500   301.31888      0.42390575    -4183.6245      31.29352       0.055        
      5600   301.38503      0.18123371    -1788.6377      31.323182      0.056        
      5700   291.76148      0.36314955    -3584.0074      31.352844      0.057        
      5800   301.55428      0.014084497   -139.00318      31.382506      0.058        
      5900   303.36369      0.11083122    -1093.8191      31.412168      0.059        
      6000   299.19719     -0.036285879    358.11378      31.44183       0.06         
      6100   299.55378      0.32788134    -3235.9372      31.471492      0.061        
      6200   300.38277      0.11930232    -1177.4224      31.501154      0.062        
      6300   300.42547     -0.219595       2167.2341      31.530816      0.063        
      6400   304.00914      0.21712187    -2142.8263      31.560479      0.064        
      6500   297.81902      0.39822509    -3930.176       31.590141      0.065        
      6600   300.07471      0.24312053    -2399.4131      31.619803      0.066        
      6700   300.50451      0.13364093    -1318.9334      31.649465      0.067        
      6800   295.56811      0.5238995     -5170.4861      31.679127      0.068        
      6900   299.70565      0.55915369    -5518.4178      31.708789      0.069        
      7000   300.0766       0.35731459    -3526.4208      31.738451      0.07         
      7100   297.857        0.38528482    -3802.4655      31.768113      0.071        
      7200   298.90053      0.54301076    -5359.0995      31.797775      0.072        
      7300   299.36193      0.24604577    -2428.283       31.827438      0.073        
      7400   293.39853      0.0055517326  -54.791341      31.8571        0.074        
      7500   295.76328      0.078996141   -779.6313       31.886762      0.075        
      7600   301.45478      0.081530136   -804.63989      31.916424      0.076        
      7700   299.41287      0.16508091    -1629.2219      31.946086      0.077        
      7800   303.72316      0.68860697    -6796.0224      31.975748      0.078        
      7900   294.63476      0.88792223    -8763.1111      32.00541       0.079        
      8000   297.76124      0.59769973    -5898.8377      32.035072      0.08         
      8100   294.90742      0.39003784    -3849.3741      32.064734      0.081        
      8200   298.94043      0.26698015    -2634.8893      32.094396      0.082        
      8300   302.09991      0.41952456    -4140.3855      32.124059      0.083        
      8400   305.40292      0.54939806    -5422.1372      32.153721      0.084        
      8500   297.625        0.24532385    -2421.1581      32.183383      0.085        
      8600   299.37855      0.16411977    -1619.7361      32.213045      0.086        
      8700   302.87579      0.41954504    -4140.5876      32.242707      0.087        
      8800   302.45758      0.2988934     -2949.8485      32.272369      0.088        
      8900   296.07579      0.2971092     -2932.2398      32.302031      0.089        
      9000   301.66022      0.088810839   -876.49484      32.331693      0.09         
      9100   300.79137      0.37682925    -3719.0156      32.361355      0.091        
      9200   302.19524      0.32718339    -3229.049       32.391017      0.092        
      9300   301.90449      0.35008296    -3455.0502      32.42068       0.093        
      9400   296.2063       0.1390559     -1372.375       32.450342      0.094        
      9500   296.90141      0.37494013    -3700.3714      32.480004      0.095        
      9600   301.73717      0.34361744    -3391.2405      32.509666      0.096        
      9700   302.16464      0.23194236    -2289.0931      32.539328      0.097        
      9800   294.81212      0.3814631     -3764.7481      32.56899       0.098        
      9900   301.03919      0.70459763    -6953.8379      32.598652      0.099        
     10000   306.4442       0.29345554    -2896.181       32.628314      0.1          
     10100   300.20312      0.03685074    -363.68852      32.657976      0.101        
     10200   303.58446      0.17200384    -1697.5459      32.687639      0.102        
     10300   300.73114     -0.13937486     1375.5229      32.717301      0.103        
     10400   303.2222       0.3046272     -3006.4367      32.746963      0.104        
     10500   299.97302     -0.087562494    864.17462      32.776625      0.105        
     10600   298.70247      0.18458924    -1821.7541      32.806287      0.106        
     10700   301.20277      0.46349432    -4574.3333      32.835949      0.107        
     10800   299.65236      0.3190882     -3149.1557      32.865611      0.108        
     10900   302.83115      0.44584398    -4400.138       32.895273      0.109        
     11000   299.57858      0.33124912    -3269.1747      32.924935      0.11         
     11100   301.91061      0.45464046    -4486.9525      32.954597      0.111        
     11200   299.24461      0.35663675    -3519.7311      32.98426       0.112        
     11300   304.81953      0.27655391    -2729.3749      33.013922      0.113        
     11400   300.76571      0.34715055    -3426.1096      33.043584      0.114        
     11500   293.55295      0.29952854    -2956.1168      33.073246      0.115        
     11600   304.38939      0.19437543    -1918.3364      33.102908      0.116        
     11700   301.53234      0.118278      -1167.3131      33.13257       0.117        
     11800   295.89041      0.31319343    -3090.9788      33.162232      0.118        
     11900   297.97971      0.19259839    -1900.7983      33.191894      0.119        
     12000   292.76016      0.22482885    -2218.8882      33.221556      0.12         
     12100   291.16559      0.31760487    -3134.5163      33.251219      0.121        
     12200   299.15108      0.49322194    -4867.7221      33.280881      0.122        
     12300   306.00726      0.50627486    -4996.5444      33.310543      0.123        
     12400   302.03857      0.35897458    -3542.8036      33.340205      0.124        
     12500   299.90642      0.33653798    -3321.3716      33.369867      0.125        
     12600   299.17237      0.54185424    -5347.6856      33.399529      0.126        
     12700   305.27868      0.20108504    -1984.5551      33.429191      0.127        
     12800   299.26266      0.05015428    -494.98426      33.458853      0.128        
     12900   301.22608      0.30625891    -3022.5405      33.488515      0.129        
     13000   305.09577      0.2443326     -2411.3753      33.518177      0.13         
     13100   301.03363      0.059128401   -583.55195      33.54784       0.131        
     13200   301.35172      0.82438206    -8136.0184      33.577502      0.132        
     13300   302.48363      0.52674961    -5198.6145      33.607164      0.133        
     13400   300.50607      0.4323864     -4267.322       33.636826      0.134        
     13500   294.31333      0.74717741    -7374.0677      33.666488      0.135        
     13600   297.35017      0.45759301    -4516.0919      33.69615       0.136        
     13700   303.39649      0.59652843    -5887.2778      33.725812      0.137        
     13800   294.86394      0.46114494    -4551.1467      33.755474      0.138        
     13900   298.64288      0.41483642    -4094.1171      33.785136      0.139        
     14000   306.78333      0.49125298    -4848.29        33.814798      0.14         
     14100   302.31808      0.3906722     -3855.6348      33.844461      0.141        
     14200   297.99847      0.19624196    -1936.7576      33.874123      0.142        
     14300   298.85893      0.31269354    -3086.0453      33.903785      0.143        
     14400   301.53478      0.25866258    -2552.8012      33.933447      0.144        
     14500   302.98056      0.1429605     -1410.9104      33.963109      0.145        
     14600   301.0125       0.43177378    -4261.2759      33.992771      0.146        
     14700   295.93059      0.29718923    -2933.0297      34.022433      0.147        
     14800   300.46645      0.36981746    -3649.8145      34.052095      0.148        
     14900   302.7524       0.40051059    -3952.7322      34.081757      0.149        
     15000   299.20123      0.47841356    -4721.5747      34.11142       0.15         
     15100   297.24514      0.32327841    -3190.5098      34.141082      0.151        
     15200   301.81556      0.43739826    -4316.7852      34.170744      0.152        
     15300   296.3062       0.24687378    -2436.4547      34.200406      0.153        
     15400   298.70652      0.5218025     -5149.7903      34.230068      0.154        
     15500   299.63434      0.41597159    -4105.3204      34.25973       0.155        
     15600   295.14312      0.18195863    -1795.7921      34.289392      0.156        
     15700   301.13522      0.35371666    -3490.912       34.319054      0.157        
     15800   298.58162      0.49737698    -4908.7291      34.348716      0.158        
     15900   296.06452      0.56715778    -5597.4121      34.378378      0.159        
     16000   298.81089      0.38586013    -3808.1434      34.408041      0.16         
     16100   299.29782      0.66677728    -6580.5801      34.437703      0.161        
     16200   294.2241       0.45315221    -4472.2646      34.467365      0.162        
     16300   303.77463      0.037767609   -372.73732      34.497027      0.163        
     16400   297.05112      0.56335235    -5559.8554      34.526689      0.164        
     16500   300.96899      0.23167909    -2286.4948      34.556351      0.165        
     16600   300.21636      0.11012579    -1086.8571      34.586013      0.166        
     16700   296.34284      0.36744913    -3626.441       34.615675      0.167        
     16800   301.09035      0.18106617    -1786.9842      34.645337      0.168        
     16900   302.63359      0.16447358    -1623.228       34.675         0.169        
     17000   305.74252      0.47806981    -4718.1822      34.704662      0.17         
     17100   301.57018      0.27139574    -2678.4677      34.734324      0.171        
     17200   304.28051      0.34541223    -3408.9536      34.763986      0.172        
     17300   302.05779     -0.01479264     145.992        34.793648      0.173        
     17400   294.78555      0.5952086     -5874.2522      34.82331       0.174        
     17500   300.24698      0.59521105    -5874.2764      34.852972      0.175        
     17600   297.01772      0.84625452    -8351.8828      34.882634      0.176        
     17700   300.92306      0.41939237    -4139.0809      34.912296      0.177        
     17800   298.80895      0.43825355    -4325.2263      34.941958      0.178        
     17900   297.56074      0.39708362    -3918.9106      34.971621      0.179        
     18000   293.23479      0.71414195    -7048.0331      35.001283      0.18         
     18100   302.9838       0.52650565    -5196.2068      35.030945      0.181        
     18200   301.46085      0.60660608    -5986.7365      35.060607      0.182        
     18300   304.93762      0.10375221    -1023.9547      35.090269      0.183        
     18400   304.11488      0.17323301    -1709.6768      35.119931      0.184        
     18500   302.14298      0.49863678    -4921.1624      35.149593      0.185        
     18600   300.63727     -0.024229132    239.12294      35.179255      0.186        
     18700   303.95292      0.49234437    -4859.0611      35.208917      0.187        
     18800   300.80414      0.045768727   -451.70221      35.238579      0.188        
     18900   303.85517      0.29162872    -2878.1517      35.268242      0.189        
     19000   304.17371      0.35268953    -3480.775       35.297904      0.19         
     19100   302.72239      0.42675288    -4211.7234      35.327566      0.191        
     19200   300.60099      0.47402126    -4678.2261      35.357228      0.192        
     19300   299.60349      0.7385946     -7289.362       35.38689       0.193        
     19400   302.50892      0.075339275   -743.54084      35.416552      0.194        
     19500   298.83077      0.32629936    -3220.3243      35.446214      0.195        
     19600   293.14828      0.51788427    -5111.1204      35.475876      0.196        
     19700   299.15127      0.27255462    -2689.9049      35.505538      0.197        
     19800   305.46475      0.34121418    -3367.5221      35.535201      0.198        
     19900   301.2496       0.30000944    -2960.8629      35.564863      0.199        
     20000   299.09092      0.36277113    -3580.2727      35.594525      0.2          
     20100   303.01878      0.54120176    -5341.2461      35.624187      0.201        
     20200   298.31151      0.28884868    -2850.7148      35.653849      0.202        
     20300   298.35875      0.29225506    -2884.3332      35.683511      0.203        
     20400   304.69132      0.4853927     -4790.4535      35.713173      0.204        
     20500   297.84832      0.48627641    -4799.175       35.742835      0.205        
     20600   301.43979      0.59383325    -5860.6786      35.772497      0.206        
     20700   296.44719      0.25390668    -2505.8641      35.802159      0.207        
     20800   301.16737      0.66200803    -6533.5113      35.831822      0.208        
     20900   294.47155      0.36288966    -3581.4425      35.861484      0.209        
     21000   293.62778      0.20514022    -2024.5766      35.891146      0.21         
     21100   298.66427      0.30399571    -3000.2044      35.920808      0.211        
     21200   300.12944      0.41467111    -4092.4857      35.95047       0.212        
     21300   299.35167      0.40260053    -3973.3583      35.980132      0.213        
     21400   299.80631      0.54208207    -5349.9341      36.009794      0.214        
     21500   301.4367       0.64872705    -6402.4382      36.039456      0.215        
     21600   301.02987      0.1843846     -1819.7346      36.069118      0.216        
     21700   299.05973      0.76509942    -7550.9442      36.09878       0.217        
     21800   299.08075      0.62434239    -6161.7803      36.128443      0.218        
     21900   305.76382      0.73640614    -7267.7635      36.158105      0.219        
     22000   301.33856      0.6135028     -6054.8019      36.187767      0.22         
     22100   300.6912       0.29883796    -2949.3013      36.217429      0.221        
     22200   298.64169      0.66301698    -6543.4689      36.247091      0.222        
     22300   302.24954      0.4421324     -4363.5075      36.276753      0.223        
     22400   297.33578      0.40322201    -3979.4918      36.306415      0.224        
     22500   301.22327      0.71020673    -7009.1955      36.336077      0.225        
     22600   301.3219       0.35605111    -3513.9512      36.365739      0.226        
     22700   298.52253      0.57715599    -5696.0868      36.395402      0.227        
     22800   299.22911      0.39459272    -3894.3273      36.425064      0.228        
     22900   292.59434      0.55960112    -5522.8336      36.454726      0.229        
     23000   298.75172      0.46467786    -4586.0139      36.484388      0.23         
     23100   303.63511      0.6972231     -6881.057       36.51405       0.231        
     23200   295.80729      0.35308862    -3484.7137      36.543712      0.232        
     23300   300.2768       0.62243924    -6142.9977      36.573374      0.233        
     23400   301.29732      0.76533824    -7553.3011      36.603036      0.234        
     23500   300.92308      0.91495763    -9029.9297      36.632698      0.235        
     23600   302.07191      0.56006891    -5527.4504      36.66236       0.236        
     23700   295.07236      0.62299657    -6148.4981      36.692023      0.237        
     23800   296.96311      0.58783411    -5801.4716      36.721685      0.238        
     23900   301.35091      0.46047716    -4544.5562      36.751347      0.239        
     24000   301.7326       0.44413103    -4383.2325      36.781009      0.24         
     24100   299.65842      0.17538011    -1730.8671      36.810671      0.241        
     24200   302.55041      0.3518766     -3472.752       36.840333      0.242        
     24300   300.74122      0.44574727    -4399.1835      36.869995      0.243        
     24400   299.87128      0.39766392    -3924.6377      36.899657      0.244        
     24500   298.39653      0.83037627    -8195.1766      36.929319      0.245        
     24600   302.68213      0.57160927    -5641.3449      36.958982      0.246        
     24700   304.89471      0.59353236    -5857.709       36.988644      0.247        
     24800   300.15001      0.5617621     -5544.1609      37.018306      0.248        
     24900   299.59152      0.67588741    -6670.4901      37.047968      0.249        
     25000   298.74077      0.49785464    -4913.4433      37.07763       0.25         
     25100   298.00219      0.43272737    -4270.6871      37.107292      0.251        
     25200   301.44291      0.67153132    -6627.4989      37.136954      0.252        
     25300   301.2908       0.53941503    -5323.6125      37.166616      0.253        
     25400   299.5211       0.63936062    -6309.9987      37.196278      0.254        
     25500   299.95653      0.62039126    -6122.7857      37.22594       0.255        
     25600   300.67979      0.5401844     -5331.2055      37.255603      0.256        
     25700   300.41025      0.5445076     -5373.8722      37.285265      0.257        
     25800   296.80438      0.97770206    -9649.1691      37.314927      0.258        
     25900   298.52653      0.71740167    -7080.204       37.344589      0.259        
     26000   294.6356       1.0457302     -10320.555      37.374251      0.26         
     26100   297.54478      0.7178208     -7084.3405      37.403913      0.261        
     26200   293.06013      0.80981379    -7992.2407      37.433575      0.262        
     26300   303.27987      0.4477337     -4418.7881      37.463237      0.263        
     26400   298.66414      0.7098456     -7005.6314      37.492899      0.264        
     26500   295.38201      0.54837807    -5412.0708      37.522561      0.265        
     26600   302.83167      0.39526385    -3900.9509      37.552224      0.266        
     26700   301.92625      0.41208529    -4066.9656      37.581886      0.267        
     26800   304.25759      0.73346997    -7238.7857      37.611548      0.268        
     26900   301.46514      0.39991328    -3946.8372      37.64121       0.269        
     27000   297.16442      0.41441439    -4089.9521      37.670872      0.27         
     27100   302.07914      0.36427544    -3595.119       37.700534      0.271        
     27200   300.74308      0.85844858    -8472.2287      37.730196      0.272        
     27300   304.28341      0.83187078    -8209.9262      37.759858      0.273        
     27400   300.27202      0.61379973    -6057.7323      37.78952       0.274        
     27500   307.02674      0.83706145    -8261.1542      37.819183      0.275        
     27600   297.80787      0.79403469    -7836.5131      37.848845      0.276        
     27700   300.183        0.71709479    -7077.1753      37.878507      0.277        
     27800   297.48503      0.86985044    -8584.7564      37.908169      0.278        
     27900   307.51751      0.90877277    -8968.8899      37.937831      0.279        
     28000   299.31321      0.83333766    -8224.4033      37.967493      0.28         
     28100   297.20434      0.71597714    -7066.145       37.997155      0.281        
     28200   299.87954      0.83608011    -8251.4691      38.026817      0.282        
     28300   293.02324      0.61029734    -6023.1664      38.056479      0.283        
     28400   300.93488      0.66616855    -6574.5724      38.086141      0.284        
     28500   299.18612      0.58333062    -5757.0256      38.115804      0.285        
     28600   295.37886      0.88390961    -8723.5096      38.145466      0.286        
     28700   304.8356       0.74162357    -7319.2555      38.175128      0.287        
     28800   308.05908      0.80671244    -7961.6328      38.20479       0.288        
     28900   298.41656      0.60637721    -5984.4778      38.234452      0.289        
     29000   300.15171      0.61324027    -6052.2109      38.264114      0.29         
     29100   295.33681      0.87335696    -8619.3631      38.293776      0.291        
     29200   303.52332      0.93068765    -9185.1729      38.323438      0.292        
     29300   300.15446      0.7924566     -7820.9385      38.3531        0.293        
     29400   306.69509      0.77792879    -7677.5602      38.382762      0.294        
     29500   294.67523      0.71748869    -7081.0628      38.412425      0.295        
     29600   296.28365      1.0057866     -9926.3419      38.442087      0.296        
     29700   304.67542      0.77272958    -7626.248       38.471749      0.297        
     29800   296.55931      1.0125522     -9993.1134      38.501411      0.298        
     29900   304.20032      0.97998018    -9671.6524      38.531073      0.299        
     30000   298.08116      0.96223665    -9496.5374      38.560735      0.3          
     30100   303.04897      0.77941568    -7692.2347      38.590397      0.301        
     30200   303.23605      0.849571      -8384.6138      38.620059      0.302        
     30300   300.08208      0.68017833    -6712.8382      38.649721      0.303        
     30400   305.94961      0.95423725    -9417.5894      38.679384      0.304        
     30500   302.71476      0.83030397    -8194.463       38.709046      0.305        
     30600   303.80932      0.77616621    -7660.1649      38.738708      0.306        
     30700   296.79939      1.1646405     -11494.108      38.76837       0.307        
     30800   300.8673       0.6698104     -6610.5147      38.798032      0.308        
     30900   301.4697       0.8371716     -8262.2413      38.827694      0.309        
     31000   298.33519      0.90143875    -8896.5087      38.857356      0.31         
     31100   301.25601      0.9104211     -8985.1577      38.887018      0.311        
     31200   304.01457      0.96880867    -9561.3982      38.91668       0.312        
     31300   299.57421      0.75429898    -7444.3522      38.946342      0.313        
     31400   296.34293      1.083459      -10692.909      38.976005      0.314        
     31500   300.13226      1.2176983     -12017.748      39.005667      0.315        
     31600   298.00596      1.218386      -12024.535      39.035329      0.316        
     31700   302.57167      1.1499631     -11349.253      39.064991      0.317        
     31800   303.01149      0.84151419    -8305.0993      39.094653      0.318        
     31900   299.79912      1.0427719     -10291.359      39.124315      0.319        
     32000   301.75886      1.0081143     -9949.3146      39.153977      0.32         
     32100   305.7267       1.1002555     -10858.678      39.183639      0.321        
     32200   299.70757      0.62881524    -6205.9239      39.213301      0.322        
     32300   301.43185      0.87986526    -8683.5949      39.242964      0.323        
     32400   299.75052      0.87642315    -8649.6239      39.272626      0.324        
     32500   303.02415      0.854446      -8432.7264      39.302288      0.325        
     32600   299.99282      0.95334148    -9408.7488      39.33195       0.326        
     32700   297.05489      1.2163174     -12004.12       39.361612      0.327        
     32800   299.14139      1.2071017     -11913.168      39.391274      0.328        
     32900   293.56149      1.027564      -10141.268      39.420936      0.329        
     33000   300.13811      1.0610398     -10471.649      39.450598      0.33         
     33100   299.24564      0.85618791    -8449.9177      39.48026       0.331        
     33200   299.86654      0.92835446    -9162.1462      39.509922      0.332        
     33300   299.31024      0.71532294    -7059.6885      39.539585      0.333        
     33400   305.66202      0.6800605     -6711.6753      39.569247      0.334        
     33500   301.38875      0.90977377    -8978.769       39.598909      0.335        
     33600   296.8007       0.78082544    -7706.1479      39.628571      0.336        
     33700   297.11338      0.93953553    -9272.4947      39.658233      0.337        
     33800   299.14537      0.93675163    -9245.0198      39.687895      0.338        
     33900   301.52382      0.77546738    -7653.268       39.717557      0.339        
     34000   306.80875      0.89329651    -8816.1511      39.747219      0.34         
     34100   298.5403       1.0292933     -10158.335      39.776881      0.341        
     34200   304.20152      1.0414405     -10278.218      39.806543      0.342        
     34300   298.5036       1.0383121     -10247.344      39.836206      0.343        
     34400   308.85567      1.2340571     -12179.197      39.865868      0.344        
     34500   302.44141      1.0414515     -10278.327      39.89553       0.345        
     34600   298.86721      0.78628938    -7760.0728      39.925192      0.346        
     34700   296.1547       1.1513079     -11362.525      39.954854      0.347        
     34800   304.11128      0.80270741    -7922.1062      39.984516      0.348        
     34900   306.09993      1.0340507     -10205.287      40.014178      0.349        
     35000   303.28691      0.99297875    -9799.9383      40.04384       0.35         
     35100   304.00178      0.94999361    -9375.708       40.073502      0.351        
     35200   300.78403      1.1791225     -11637.034      40.103165      0.352        
     35300   301.91241      1.2822839     -12655.158      40.132827      0.353        
     35400   301.42621      1.1899703     -11744.094      40.162489      0.354        
     35500   296.47388      1.2012842     -11855.753      40.192151      0.355        
     35600   294.30027      1.2258819     -12098.514      40.221813      0.356        
     35700   301.54713      1.2659795     -12494.246      40.251475      0.357        
     35800   296.83296      1.3399716     -13224.491      40.281137      0.358        
     35900   299.90352      1.2101202     -11942.958      40.310799      0.359        
     36000   299.3854       1.1126021     -10980.529      40.340461      0.36         
     36100   301.62851      0.85120218    -8400.7124      40.370123      0.361        
     36200   299.57385      0.83121336    -8203.438       40.399786      0.362        
     36300   301.91351      1.0056911     -9925.399       40.429448      0.363        
     36400   307.893        1.1950725     -11794.449      40.45911       0.364        
     36500   303.51969      1.0580019     -10441.667      40.488772      0.365        
     36600   297.35019      1.1079863     -10934.974      40.518434      0.366        
     36700   297.9053       0.88549476    -8739.1538      40.548096      0.367        
     36800   299.11185      0.8476559     -8365.7133      40.577758      0.368        
     36900   298.58814      0.99734713    -9843.0509      40.60742       0.369        
     37000   299.24851      0.82589861    -8150.9855      40.637082      0.37         
     37100   301.93752      1.0456749     -10320.009      40.666744      0.371        
     37200   300.46956      1.2697191     -12531.153      40.696407      0.372        
     37300   293.44378      0.98513959    -9722.5718      40.726069      0.373        
     37400   299.13085      0.91254786    -9006.1471      40.755731      0.374        
     37500   298.48004      1.2983851     -12814.065      40.785393      0.375        
     37600   297.24364      1.1935063     -11778.991      40.815055      0.376        
     37700   304.31299      1.3697829     -13518.706      40.844717      0.377        
     37800   300.78628      0.90278952    -8909.8398      40.874379      0.378        
     37900   297.24885      1.0773051     -10632.174      40.904041      0.379        
     38000   297.51788      1.2564939     -12400.63       40.933703      0.38         
     38100   300.29176      1.1630992     -11478.897      40.963366      0.381        
     38200   300.59016      1.1630963     -11478.868      40.993028      0.382        
     38300   303.9122       1.4467696     -14278.505      41.02269       0.383        
     38400   299.64207      1.3831763     -13650.889      41.052352      0.384        
     38500   298.73202      1.3365999     -13191.216      41.082014      0.385        
     38600   298.38005      1.2494243     -12330.86       41.111676      0.386        
     38700   304.46472      1.1719443     -11566.191      41.141338      0.387        
     38800   299.97796      1.3699506     -13520.362      41.171         0.388        
     38900   303.44703      1.0907659     -10765.022      41.200662      0.389        
     39000   305.18033      1.1751309     -11597.641      41.230324      0.39         
     39100   297.68839      1.1974666     -11818.077      41.259987      0.391        
     39200   298.88774      1.1420243     -11270.904      41.289649      0.392        
     39300   303.20968      1.0308999     -10174.191      41.319311      0.393        
     39400   301.97696      0.95737482    -9448.5548      41.348973      0.394        
     39500   302.04175      0.83517227    -8242.5095      41.378635      0.395        
     39600   302.04974      1.310283      -12931.488      41.408297      0.396        
     39700   302.5225       1.583702      -15629.923      41.437959      0.397        
     39800   302.23673      1.6040037     -15830.286      41.467621      0.398        
     39900   305.11202      1.407545      -13891.389      41.497283      0.399        
     40000   299.7262       1.5052112     -14855.28       41.526946      0.4          
     40100   300.19985      1.3275865     -13102.26       41.556608      0.401        
     40200   297.77416      1.3722404     -13542.96       41.58627       0.402        
     40300   301.53069      1.202914      -11871.838      41.615932      0.403        
     40400   306.43791      1.2210975     -12051.295      41.645594      0.404        
     40500   301.14717      1.2605595     -12440.755      41.675256      0.405        
     40600   301.27037      1.6347283     -16133.514      41.704918      0.406        
     40700   298.35825      1.5086347     -14889.067      41.73458       0.407        
     40800   296.32966      1.4755293     -14562.342      41.764242      0.408        
     40900   299.25469      1.4938454     -14743.108      41.793904      0.409        
     41000   299.14388      1.6657594     -16439.767      41.823567      0.41         
     41100   298.00054      1.5771417     -15565.179      41.853229      0.411        
     41200   305.65072      1.4664972     -14473.202      41.882891      0.412        
     41300   308.20259      1.4734615     -14541.934      41.912553      0.413        
     41400   302.24377      1.2709765     -12543.563      41.942215      0.414        
     41500   304.60528      1.602294      -15813.412      41.971877      0.415        
     41600   306.7815       1.6860102     -16639.627      42.001539      0.416        
     41700   300.14355      1.4062669     -13878.775      42.031201      0.417        
     41800   297.90647      1.5965327     -15756.552      42.060863      0.418        
     41900   299.42433      1.583466      -15627.594      42.090525      0.419        
     42000   304.03334      1.4250444     -14064.095      42.120188      0.42         
     42100   305.17602      1.4756658     -14563.689      42.14985       0.421        
     42200   294.70991      1.4483534     -14294.137      42.179512      0.422        
     42300   295.0657       1.3942941     -13760.613      42.209174      0.423        
     42400   301.81574      1.6788645     -16569.104      42.238836      0.424        
     42500   303.27329      1.925336      -19001.588      42.268498      0.425        
     42600   299.89359      1.6997073     -16774.807      42.29816       0.426        
     42700   300.34995      1.4768483     -14575.36       42.327822      0.427        
     42800   302.36913      1.5330252     -15129.782      42.357484      0.428        
     42900   298.49688      1.7557251     -17327.659      42.387147      0.429        
     43000   304.08171      1.8642939     -18399.15       42.416809      0.43         
     43100   295.50781      1.6733991     -16515.165      42.446471      0.431        
     43200   301.3423       1.7433512     -17205.539      42.476133      0.432        
     43300   303.81379      1.6164427     -15953.049      42.505795      0.433        
     43400   297.0522       1.6727767     -16509.022      42.535457      0.434        
     43500   304.64973      1.8543051     -18300.568      42.565119      0.435        
     43600   299.35673      1.7714001     -17482.36       42.594781      0.436        
     43700   303.01229      1.9792174     -19533.357      42.624443      0.437        
     43800   300.21891      1.744929      -17221.11       42.654105      0.438        
     43900   302.63594      1.7975343     -17740.285      42.683768      0.439        
     44000   300.30144      1.9855534     -19595.888      42.71343       0.44         
     44100   301.54563      1.4852203     -14657.985      42.743092      0.441        
     44200   296.0405       1.8305711     -18066.332      42.772754      0.442        
     44300   301.26973      1.9733963     -19475.908      42.802416      0.443        
     44400   304.28519      1.8823718     -18577.565      42.832078      0.444        
     44500   300.66562      1.9080629     -18831.117      42.86174       0.445        
     44600   299.75702      1.6703475     -16485.048      42.891402      0.446        
     44700   304.97049      1.5707245     -15501.845      42.921064      0.447        
     44800   300.13708      1.75092       -17280.236      42.950727      0.448        
     44900   295.67407      2.0022479     -19760.65       42.980389      0.449        
     45000   297.86459      2.092119      -20647.609      43.010051      0.45         
     45100   301.16528      2.0329547     -20063.703      43.039713      0.451        
     45200   299.53814      1.6793205     -16573.605      43.069375      0.452        
     45300   299.74663      2.1325703     -21046.833      43.099037      0.453        
     45400   304.20779      1.7259959     -17034.256      43.128699      0.454        
     45500   302.76086      1.9439866     -19185.656      43.158361      0.455        
     45600   296.69549      1.8985954     -18737.68       43.188023      0.456        
     45700   300.8722       2.1516783     -21235.414      43.217685      0.457        
     45800   297.39965      2.1897621     -21611.271      43.247348      0.458        
     45900   300.51402      2.149009      -21209.07       43.27701       0.459        
     46000   300.78605      2.0438222     -20170.957      43.306672      0.46         
     46100   299.66346      1.9329316     -19076.552      43.336334      0.461        
     46200   301.86302      1.8453631     -18212.318      43.365996      0.462        
     46300   299.28954      1.8227946     -17989.584      43.395658      0.463        
     46400   300.119        2.1414255     -21134.226      43.42532       0.464        
     46500   302.49986      1.8870697     -18623.93       43.454982      0.465        
     46600   296.77369      1.7818129     -17585.126      43.484644      0.466        
     46700   296.43281      2.1723473     -21439.401      43.514306      0.467        
     46800   302.90025      1.8131397     -17894.298      43.543969      0.468        
     46900   301.67295      1.9964344     -19703.276      43.573631      0.469        
     47000   299.20074      1.755189      -17322.368      43.603293      0.47         
     47100   303.15627      1.9023971     -18775.2        43.632955      0.471        
     47200   302.24354      2.5287644     -24956.964      43.662617      0.472        
     47300   297.51554      2.3318784     -23013.851      43.692279      0.473        
     47400   300.50058      2.2878414     -22579.239      43.721941      0.474        
     47500   299.23997      2.1798205     -21513.156      43.751603      0.475        
     47600   295.64541      2.0426774     -20159.659      43.781265      0.476        
     47700   300.3139       1.9198215     -18947.165      43.810928      0.477        
     47800   299.97391      2.1154391     -20877.761      43.84059       0.478        
     47900   299.28229      1.8864354     -18617.67       43.870252      0.479        
     48000   298.69307      2.3114096     -22811.839      43.899914      0.48         
     48100   295.8398       1.9618721     -19362.173      43.929576      0.481        
     48200   299.4164       2.2000258     -21712.566      43.959238      0.482        
     48300   302.79499      2.1587612     -21305.316      43.9889        0.483        
     48400   299.82142      2.1283302     -21004.986      44.018562      0.484        
     48500   300.79995      2.4734852     -24411.401      44.048224      0.485        
     48600   309.09939      2.3087254     -22785.348      44.077886      0.486        
     48700   298.88856      2.0986808     -20712.369      44.107549      0.487        
     48800   301.02776      2.1980993     -21693.553      44.137211      0.488        
     48900   300.74164      2.0988343     -20713.884      44.166873      0.489        
     49000   297.6449       2.1262016     -20983.979      44.196535      0.49         
     49100   298.00234      2.1963325     -21676.117      44.226197      0.491        
     49200   301.24862      2.2500195     -22205.966      44.255859      0.492        
     49300   300.96398      2.2308192     -22016.474      44.285521      0.493        
     49400   300.89541      2.5614122     -25279.172      44.315183      0.494        
     49500   297.58227      1.9918784     -19658.312      44.344845      0.495        
     49600   299.76945      2.3619008     -23310.149      44.374507      0.496        
     49700   304.79252      2.7851391     -27487.186      44.40417       0.497        
     49800   301.02052      2.5462558     -25129.591      44.433832      0.498        
     49900   305.36868      2.5819771     -25482.133      44.463494      0.499        
     50000   301.46848      2.2174239     -21884.272      44.493156      0.5          
     50100   306.00295      2.5168338     -24839.218      44.522818      0.501        
     50200   300.10056      2.4226478     -23909.675      44.55248       0.502        
     50300   298.05515      2.1356516     -21077.243      44.582142      0.503        
     50400   301.57846      2.5446247     -25113.493      44.611804      0.504        
     50500   297.70563      2.5265307     -24934.919      44.641466      0.505        
     50600   298.88918      2.3081096     -22779.27       44.671129      0.506        
     50700   297.93696      2.7737294     -27374.58       44.700791      0.507        
     50800   298.73507      2.581188      -25474.345      44.730453      0.508        
     50900   305.94237      2.3171869     -22868.857      44.760115      0.509        
     51000   303.68281      2.5123442     -24794.909      44.789777      0.51         
     51100   297.54056      2.4015618     -23701.572      44.819439      0.511        
     51200   303.13666      2.6371993     -26027.134      44.849101      0.512        
     51300   297.56351      2.6917002     -26565.016      44.878763      0.513        
     51400   302.4655       2.537386      -25042.053      44.908425      0.514        
     51500   297.00205      2.7003366     -26650.25       44.938087      0.515        
     51600   297.43884      2.435789      -24039.368      44.96775       0.516        
     51700   295.56239      2.665849      -26309.884      44.997412      0.517        
     51800   299.34327      2.3271682     -22967.364      45.027074      0.518        
     51900   299.79415      2.2923981     -22624.21       45.056736      0.519        
     52000   301.97744      2.5461211     -25128.261      45.086398      0.52         
     52100   296.26479      2.507808      -24750.141      45.11606       0.521        
     52200   301.90942      2.528492      -24954.276      45.145722      0.522        
     52300   299.21407      2.6619736     -26271.637      45.175384      0.523        
     52400   303.05707      2.6895101     -26543.401      45.205046      0.524        
     52500   303.13636      2.6354886     -26010.251      45.234709      0.525        
     52600   303.878        2.6744202     -26394.475      45.264371      0.526        
     52700   295.68597      2.6783864     -26433.619      45.294033      0.527        
     52800   306.93859      2.8623395     -28249.094      45.323695      0.528        
     52900   303.69556      2.8783198     -28406.807      45.353357      0.529        
     53000   302.38172      2.7357707     -26999.958      45.383019      0.53         
     53100   298.38638      2.8286181     -27916.29       45.412681      0.531        
     53200   299.22381      2.7866644     -27502.239      45.442343      0.532        
     53300   300.16713      2.459153      -24269.953      45.472005      0.533        
     53400   302.87853      2.5151842     -24822.938      45.501667      0.534        
     53500   298.79476      2.4974533     -24647.948      45.53133       0.535        
     53600   298.96717      2.681007      -26459.482      45.560992      0.536        
     53700   303.34362      2.7997926     -27631.805      45.590654      0.537        
     53800   303.01865      2.8090965     -27723.627      45.620316      0.538        
     53900   301.59703      2.7199916     -26844.23       45.649978      0.539        
     54000   297.50404      2.6004839     -25664.781      45.67964       0.54         
     54100   304.07246      2.9864928     -29474.393      45.709302      0.541        
     54200   300.46869      2.973331      -29344.496      45.738964      0.542        
     54300   296.35934      2.8208771     -27839.892      45.768626      0.543        
     54400   302.45732      2.8888705     -28510.935      45.798288      0.544        
     54500   296.54644      3.0348405     -29951.547      45.827951      0.545        
     54600   304.30473      2.8274844     -27905.102      45.857613      0.546        
     54700   300.41914      3.0044546     -29651.662      45.887275      0.547        
     54800   296.49913      3.2044087     -31625.055      45.916937      0.548        
     54900   295.70523      3.1986868     -31568.584      45.946599      0.549        
     55000   298.27746      3.2166054     -31745.427      45.976261      0.55         
     55100   303.16693      2.8809909     -28433.169      46.005923      0.551        
     55200   302.37341      3.0754352     -30352.186      46.035585      0.552        
     55300   297.34795      2.9326135     -28942.645      46.065247      0.553        
     55400   302.68052      3.0853693     -30450.228      46.09491       0.554        
     55500   304.55605      3.3058763     -32626.462      46.124572      0.555        
     55600   304.3465       2.9300116     -28916.967      46.154234      0.556        
     55700   299.97653      3.1566496     -31153.709      46.183896      0.557        
     55800   300.84329      3.1135184     -30728.038      46.213558      0.558        
     55900   294.56371      3.1796761     -31380.963      46.24322       0.559        
     56000   300.25099      3.2528379     -32103.014      46.272882      0.56         
     56100   297.11195      3.3715        -33274.118      46.302544      0.561        
     56200   299.83375      3.0207073     -29812.063      46.332206      0.562        
     56300   296.10426      2.9621033     -29233.687      46.361868      0.563        
     56400   299.87652      3.2569077     -32143.18       46.391531      0.564        
     56500   301.35         3.4994974     -34537.354      46.421193      0.565        
     56600   302.63094      3.2691028     -32263.536      46.450855      0.566        
     56700   305.56525      3.1184946     -30777.149      46.480517      0.567        
     56800   297.188        3.0648087     -30247.31       46.510179      0.568        
     56900   300.20671      3.4468092     -34017.362      46.539841      0.569        
     57000   302.79997      3.6605818     -36127.133      46.569503      0.57         
     57100   304.41409      3.5101475     -34642.463      46.599165      0.571        
     57200   292.92865      3.4428106     -33977.898      46.628827      0.572        
     57300   295.55222      3.5822593     -35354.151      46.658489      0.573        
     57400   298.56836      3.49511       -34494.054      46.688152      0.574        
     57500   303.1983       3.4235605     -33787.915      46.717814      0.575        
     57600   300.14414      3.2816753     -32387.617      46.747476      0.576        
     57700   297.43758      3.3745007     -33303.733      46.777138      0.577        
     57800   302.21234      3.7892847     -37397.333      46.8068        0.578        
     57900   298.57151      3.603902      -35567.748      46.836462      0.579        
     58000   299.69499      3.4091007     -33645.208      46.866124      0.58         
     58100   301.72641      3.3650845     -33210.802      46.895786      0.581        
     58200   300.46806      3.6406201     -35930.127      46.925448      0.582        
     58300   305.7279       3.2508939     -32083.828      46.955111      0.583        
     58400   303.37387      3.3646503     -33206.516      46.984773      0.584        
     58500   299.91101      3.5644888     -35178.769      47.014435      0.585        
     58600   300.50756      3.3285105     -32849.844      47.044097      0.586        
     58700   302.48253      3.433467      -33885.684      47.073759      0.587        
     58800   296.96895      3.3640392     -33200.485      47.103421      0.588        
     58900   302.31         3.463822      -34185.265      47.133083      0.589        
     59000   303.20143      3.5346768     -34884.547      47.162745      0.59         
     59100   299.5222       3.5511915     -35047.536      47.192407      0.591        
     59200   300.91992      3.2957217     -32526.244      47.222069      0.592        
     59300   299.02766      3.7665895     -37173.348      47.251732      0.593        
     59400   300.29847      3.9353576     -38838.96       47.281394      0.594        
     59500   301.19875      3.6107394     -35635.228      47.311056      0.595        
     59600   306.78439      3.6569031     -36090.827      47.340718      0.596        
     59700   301.7096       3.4862135     -34406.253      47.37038       0.597        
     59800   302.08928      3.6901331     -36418.782      47.400042      0.598        
     59900   298.13669      3.500307      -34545.344      47.429704      0.599        
     60000   299.42005      3.8172312     -37673.143      47.459366      0.6          
     60100   303.14376      3.6800859     -36319.624      47.489028      0.601        
     60200   300.00058      3.8088918     -37590.84       47.518691      0.602        
     60300   304.68667      3.6502719     -36025.383      47.548353      0.603        
     60400   301.73136      3.894183      -38432.598      47.578015      0.604        
     60500   298.53177      3.7008261     -36524.314      47.607677      0.605        
     60600   306.70069      3.7663213     -37170.701      47.637339      0.606        
     60700   300.2626       3.8728712     -38222.267      47.667001      0.607        
     60800   300.75015      3.9927749     -39405.624      47.696663      0.608        
     60900   297.71755      3.7972307     -37475.754      47.726325      0.609        
     61000   299.70734      3.8814889     -38307.318      47.755987      0.61         
     61100   306.48011      4.0036189     -39512.646      47.785649      0.611        
     61200   299.3256       3.981597      -39295.307      47.815312      0.612        
     61300   303.76245      3.8767075     -38260.128      47.844974      0.613        
     61400   302.78814      3.7673164     -37180.522      47.874636      0.614        
     61500   303.77664      4.1098761     -40561.323      47.904298      0.615        
     61600   301.59119      4.097649      -40440.651      47.93396       0.616        
     61700   300.65512      4.2118224     -41567.455      47.963622      0.617        
     61800   294.81707      4.3902197     -43328.1        47.993284      0.618        
     61900   301.97907      4.346923      -42900.795      48.022946      0.619        
     62000   296.99167      3.952032      -39003.524      48.052608      0.62         
     62100   299.16814      4.230736      -41754.118      48.08227       0.621        
     62200   296.32845      4.2893801     -42332.891      48.111933      0.622        
     62300   294.79626      4.3662363     -43091.402      48.141595      0.623        
     62400   304.28038      4.1961249     -41412.533      48.171257      0.624        
     62500   301.08642      4.2691253     -42132.991      48.200919      0.625        
     62600   299.41346      4.1783572     -41237.179      48.230581      0.626        
     62700   296.61457      4.430138      -43722.062      48.260243      0.627        
     62800   297.49005      4.2464899     -41909.597      48.289905      0.628        
     62900   306.76089      4.3228919     -42663.626      48.319567      0.629        
     63000   301.43619      4.4197453     -43619.494      48.349229      0.63         
     63100   302.26827      4.2242988     -41690.588      48.378892      0.631        
     63200   300.63798      4.1864989     -41317.532      48.408554      0.632        
     63300   300.46062      4.3166397     -42601.922      48.438216      0.633        
     63400   300.92697      4.2233671     -41681.392      48.467878      0.634        
     63500   300.64594      4.5211578     -44620.358      48.49754       0.635        
     63600   297.18164      4.5527841     -44932.485      48.527202      0.636        
     63700   304.21966      4.5833923     -45234.565      48.556864      0.637        
     63800   298.02056      4.4244921     -43666.342      48.586526      0.638        
     63900   297.60952      4.7859441     -47233.596      48.616188      0.639        
     64000   297.03599      4.5133931     -44543.727      48.64585       0.64         
     64100   301.99613      4.4660686     -44076.67       48.675513      0.641        
     64200   298.57893      4.5899925     -45299.704      48.705175      0.642        
     64300   305.20578      4.6525494     -45917.093      48.734837      0.643        
     64400   296.44675      4.5826379     -45227.119      48.764499      0.644        
     64500   303.01487      4.7729799     -47105.649      48.794161      0.645        
     64600   301.91978      4.7282679     -46664.376      48.823823      0.646        
     64700   304.02098      4.8073224     -47444.584      48.853485      0.647        
     64800   300.45         4.9322079     -48677.107      48.883147      0.648        
     64900   299.46833      4.7475074     -46854.255      48.912809      0.649        
     65000   297.49691      4.7964299     -47337.083      48.942471      0.65         
     65100   305.8174       4.4052639     -43476.574      48.972134      0.651        
     65200   299.98675      5.0085948     -49430.988      49.001796      0.652        
     65300   301.19976      5.0598165     -49936.507      49.031458      0.653        
     65400   295.68628      4.8998784     -48358.04       49.06112       0.654        
     65500   300.6856       4.8903381     -48263.885      49.090782      0.655        
     65600   302.58406      4.7923278     -47296.598      49.120444      0.656        
     65700   301.63502      4.7816356     -47191.074      49.150106      0.657        
     65800   299.47545      4.972544      -49075.193      49.179768      0.658        
     65900   305.70927      5.1897573     -51218.922      49.20943       0.659        
     66000   301.19553      5.1428496     -50755.98       49.239093      0.66         
     66100   302.41079      4.8579235     -47943.978      49.268755      0.661        
     66200   304.93553      4.867025      -48033.802      49.298417      0.662        
     66300   301.0139       5.0040849     -49386.478      49.328079      0.663        
     66400   299.99636      5.0849955     -50185.004      49.357741      0.664        
     66500   304.43721      5.0375123     -49716.381      49.387403      0.665        
     66600   302.61499      5.269723      -52008.123      49.417065      0.666        
     66700   302.18058      5.1560868     -50886.62       49.446727      0.667        
     66800   301.30089      5.1377197     -50705.351      49.476389      0.668        
     66900   300.97417      5.2873918     -52182.5        49.506051      0.669        
     67000   302.42907      5.2749247     -52059.459      49.535714      0.67         
     67100   297.48438      4.9626545     -48977.592      49.565376      0.671        
     67200   299.53592      5.3766843     -53063.748      49.595038      0.672        
     67300   297.29412      5.2206121     -51523.435      49.6247        0.673        
     67400   298.91741      5.1869182     -51190.902      49.654362      0.674        
     67500   302.46699      5.5122898     -54402.071      49.684024      0.675        
     67600   302.10924      5.5875234     -55144.568      49.713686      0.676        
     67700   304.2284       5.3466338     -52767.173      49.743348      0.677        
     67800   301.45707      5.2925793     -52233.697      49.77301       0.678        
     67900   295.11242      5.4864387     -54146.94       49.802673      0.679        
     68000   294.04601      5.5230743     -54508.505      49.832335      0.68         
     68100   300.74767      5.463711      -53922.635      49.861997      0.681        
     68200   307.60005      5.2725184     -52035.71       49.891659      0.682        
     68300   294.02514      5.4483071     -53770.61       49.921321      0.683        
     68400   296.92256      5.4341559     -53630.949      49.950983      0.684        
     68500   301.55143      5.683105      -56087.885      49.980645      0.685        
     68600   296.97194      5.7946097     -57188.351      50.010307      0.686        
     68700   295.95035      5.598742      -55255.287      50.039969      0.687        
     68800   307.01154      5.6925601     -56181.2        50.069631      0.688        
     68900   298.82974      5.8362745     -57599.551      50.099294      0.689        
     69000   299.48736      5.9422948     -58645.89       50.128956      0.69         
     69100   297.86477      6.0342337     -59553.257      50.158618      0.691        
     69200   296.55338      5.7886772     -57129.802      50.18828       0.692        
     69300   302.99658      5.9356211     -58580.026      50.217942      0.693        
     69400   300.11375      5.7198131     -56450.166      50.247604      0.694        
     69500   299.2281       5.889717      -58126.987      50.277266      0.695        
     69600   299.74273      6.063389      -59840.997      50.306928      0.696        
     69700   302.05467      6.1606473     -60800.861      50.33659       0.697        
     69800   296.35919      5.8991179     -58219.767      50.366252      0.698        
     69900   295.87369      5.9642049     -58862.125      50.395915      0.699        
     70000   303.99405      5.9653359     -58873.288      50.425577      0.7          
     70100   295.15985      5.8718465     -57950.62       50.455239      0.701        
     70200   304.29397      6.0118144     -59331.995      50.484901      0.702        
     70300   303.05441      6.2282408     -61467.958      50.514563      0.703        
     70400   298.63583      6.1900747     -61091.287      50.544225      0.704        
     70500   295.43537      5.9370349     -58593.979      50.573887      0.705        
     70600   293.2594       6.2587427     -61768.987      50.603549      0.706        
     70700   295.44773      6.3428164     -62598.731      50.633211      0.707        
     70800   299.71134      6.2047635     -61236.255      50.662874      0.708        
     70900   297.06257      6.2231319     -61417.536      50.692536      0.709        
     71000   301.5197       6.1614776     -60809.056      50.722198      0.71         
     71100   301.26643      6.0330214     -59541.292      50.75186       0.711        
     71200   298.39921      6.0068322     -59282.824      50.781522      0.712        
     71300   301.0234       6.0767837     -59973.192      50.811184      0.713        
     71400   306.51442      6.4922378     -64073.406      50.840846      0.714        
     71500   305.33797      6.3508472     -62677.988      50.870508      0.715        
     71600   303.3627       6.1513432     -60709.037      50.90017       0.716        
     71700   299.94162      6.5276749     -64423.143      50.929832      0.717        
     71800   304.90771      6.6719186     -65846.717      50.959495      0.718        
     71900   300.87278      6.4020543     -63183.363      50.989157      0.719        
     72000   300.51405      6.3460023     -62630.173      51.018819      0.72         
     72100   299.18612      6.5354067     -64499.449      51.048481      0.721        
     72200   297.70464      6.7080616     -66203.421      51.078143      0.722        
     72300   299.0445       6.4378171     -63536.315      51.107805      0.723        
     72400   298.24053      6.6676542     -65804.631      51.137467      0.724        
     72500   308.55005      6.3672704     -62840.073      51.167129      0.725        
     72600   298.40804      6.6885382     -66010.74       51.196791      0.726        
     72700   301.69726      6.6791812     -65918.393      51.226453      0.727        
     72800   302.7016       6.5806313     -64945.781      51.256116      0.728        
     72900   298.88991      6.6266624     -65400.073      51.285778      0.729        
     73000   303.3033       6.9517485     -68608.423      51.31544       0.73         
     73100   300.64627      6.7943529     -67055.049      51.345102      0.731        
     73200   299.13749      6.8350174     -67456.377      51.374764      0.732        
     73300   299.14119      7.2463253     -71515.67       51.404426      0.733        
     73400   295.86341      6.7478928     -66596.524      51.434088      0.734        
     73500   298.88849      7.0145746     -69228.468      51.46375       0.735        
     73600   306.13299      6.7524521     -66641.521      51.493412      0.736        
     73700   300.33669      6.8510789     -67614.892      51.523075      0.737        
     73800   301.10203      7.106059      -70131.35       51.552737      0.738        
     73900   299.69024      7.2156626     -71213.053      51.582399      0.739        
     74000   294.01264      7.0618463     -69695.004      51.612061      0.74         
     74100   300.45832      7.0926521     -69999.034      51.641723      0.741        
     74200   301.13014      6.9949364     -69034.655      51.671385      0.742        
     74300   299.14273      6.8628507     -67731.071      51.701047      0.743        
     74400   302.38384      7.2434787     -71487.576      51.730709      0.744        
     74500   299.94568      7.1981444     -71040.162      51.760371      0.745        
     74600   295.21266      7.1001829     -70073.357      51.790033      0.746        
     74700   301.87993      7.1675707     -70738.422      51.819696      0.747        
     74800   300.11946      7.2508569     -71560.394      51.849358      0.748        
     74900   296.03401      7.1412334     -70478.494      51.87902       0.749        
     75000   300.52451      7.3125523     -72169.28       51.908682      0.75         
     75100   302.91993      7.2439373     -71492.103      51.938344      0.751        
     75200   299.18168      7.1999323     -71057.807      51.968006      0.752        
     75300   300.29475      7.4593126     -73617.691      51.997668      0.753        
     75400   293.14433      7.5552231     -74564.255      52.02733       0.754        
     75500   298.09699      7.2514715     -71566.46       52.056992      0.755        
     75600   303.16297      7.4342495     -73370.338      52.086655      0.756        
     75700   298.2022       7.4319917     -73348.056      52.116317      0.757        
     75800   295.0126       7.3254955     -72297.02       52.145979      0.758        
     75900   300.46871      7.6691242     -75688.371      52.175641      0.759        
     76000   301.08949      7.4484806     -73510.788      52.205303      0.76         
     76100   297.04271      7.5379942     -74394.218      52.234965      0.761        
     76200   302.04423      8.0216504     -79167.534      52.264627      0.762        
     76300   298.49535      7.4955424     -73975.252      52.294289      0.763        
     76400   299.63821      7.4300048     -73328.446      52.323951      0.764        
     76500   294.92462      7.6657234     -75654.808      52.353613      0.765        
     76600   297.34875      7.6723036     -75719.749      52.383276      0.766        
     76700   295.83106      7.765808      -76642.566      52.412938      0.767        
     76800   298.94057      7.9904206     -78859.32       52.4426        0.768        
     76900   298.11003      7.8899406     -77867.659      52.472262      0.769        
     77000   302.79739      8.0701805     -79646.489      52.501924      0.77         
     77100   304.30511      7.7400348     -76388.205      52.531586      0.771        
     77200   297.78459      7.8304995     -77281.021      52.561248      0.772        
     77300   295.33471      7.5368517     -74382.943      52.59091       0.773        
     77400   298.579        7.6637009     -75634.848      52.620572      0.774        
     77500   299.74242      7.9240112     -78203.911      52.650234      0.775        
     77600   302.07156      7.7583971     -76569.426      52.679897      0.776        
     77700   302.26241      7.8504344     -77477.764      52.709559      0.777        
     77800   296.76741      7.9497348     -78457.783      52.739221      0.778        
     77900   299.5582       7.9770878     -78727.735      52.768883      0.779        
     78000   297.58792      8.0948828     -79890.282      52.798545      0.78         
     78100   300.86573      8.2732135     -81650.269      52.828207      0.781        
     78200   303.53416      8.0014423     -78968.096      52.857869      0.782        
     78300   303.04139      8.3628915     -82535.322      52.887531      0.783        
     78400   297.80622      8.4665694     -83558.543      52.917193      0.784        
     78500   295.13288      8.3476622     -82385.02       52.946856      0.785        
     78600   301.90018      8.5428386     -84311.262      52.976518      0.786        
     78700   300.59038      8.5264063     -84149.088      53.00618       0.787        
     78800   300.87927      8.2542159     -81462.777      53.035842      0.788        
     78900   306.04731      8.3140485     -82053.279      53.065504      0.789        
     79000   301.5615       8.6542659     -85410.964      53.095166      0.79         
     79100   297.67527      8.5391378     -84274.738      53.124828      0.791        
     79200   304.43453      8.3475685     -82384.096      53.15449       0.792        
     79300   298.0758       8.5890221     -84767.057      53.184152      0.793        
     79400   298.82814      8.6223473     -85095.952      53.213814      0.794        
     79500   297.72387      8.4881346     -83771.375      53.243477      0.795        
     79600   300.43269      8.4747038     -83638.824      53.273139      0.796        
     79700   303.73099      8.4605567     -83499.202      53.302801      0.797        
     79800   304.86401      8.5487212     -84369.319      53.332463      0.798        
     79900   304.86505      8.6283721     -85155.412      53.362125      0.799        
     80000   301.03275      8.6564643     -85432.66       53.391787      0.8          
     80100   299.16742      8.6372944     -85243.468      53.421449      0.801        
     80200   302.42011      8.5611599     -84492.079      53.451111      0.802        
     80300   294.41951      8.7888344     -86739.052      53.480773      0.803        
     80400   300.05159      8.8350824     -87195.484      53.510436      0.804        
     80500   298.50498      8.8238548     -87084.676      53.540098      0.805        
     80600   299.83711      8.5545668     -84427.01       53.56976       0.806        
     80700   300.46306      8.8332901     -87177.796      53.599422      0.807        
     80800   299.46954      9.0919515     -89730.585      53.629084      0.808        
     80900   303.04533      8.8917801     -87755.046      53.658746      0.809        
     81000   301.25794      8.8577333     -87419.031      53.688408      0.81         
     81100   297.8785       8.9586924     -88415.419      53.71807       0.811        
     81200   298.21305      9.2594592     -91383.757      53.747732      0.812        
     81300   303.35527      9.0478404     -89295.242      53.777394      0.813        
     81400   303.3963       8.9563979     -88392.775      53.807057      0.814        
     81500   300.61705      9.213318      -90928.379      53.836719      0.815        
     81600   293.43919      9.27805       -91567.234      53.866381      0.816        
     81700   296.70569      9.2847317     -91633.177      53.896043      0.817        
     81800   300.75129      9.3595206     -92371.287      53.925705      0.818        
     81900   301.24138      9.5838668     -94585.412      53.955367      0.819        
     82000   300.64711      9.4007439     -92778.129      53.985029      0.82         
     82100   295.46023      9.547634      -94227.822      54.014691      0.821        
     82200   297.16186      9.3759087     -92533.025      54.044353      0.822        
     82300   302.14403      9.45726       -93335.9        54.074015      0.823        
     82400   299.7185       9.1543374     -90346.286      54.103678      0.824        
     82500   296.9734       9.5322333     -94075.828      54.13334       0.825        
     82600   301.2758       9.3796674     -92570.12       54.163002      0.826        
     82700   296.62105      9.417642      -92944.9        54.192664      0.827        
     82800   293.8021       9.6360098     -95100.023      54.222326      0.828        
     82900   297.26375      9.4212818     -92980.822      54.251988      0.829        
     83000   295.80627      9.554918      -94299.709      54.28165       0.83         
     83100   304.19285      9.8012356     -96730.675      54.311312      0.831        
     83200   303.44886      9.6892873     -95625.831      54.340974      0.832        
     83300   298.42373      9.7654233     -96377.235      54.370637      0.833        
     83400   297.15656      9.855471      -97265.937      54.400299      0.834        
     83500   296.33491      9.7267741     -95995.797      54.429961      0.835        
     83600   300.36096      9.7328584     -96055.844      54.459623      0.836        
     83700   302.33038      9.743706      -96162.902      54.489285      0.837        
     83800   302.49486      9.8790122     -97498.27       54.518947      0.838        
     83900   299.77671      9.631931      -95059.768      54.548609      0.839        
     84000   294.49343      9.7021222     -95752.501      54.578271      0.84         
     84100   302.47279      9.8423208     -97136.154      54.607933      0.841        
     84200   301.7098       9.9415828     -98115.794      54.637595      0.842        
     84300   305.32896      9.9221858     -97924.36       54.667258      0.843        
     84400   300.09178      9.9243823     -97946.038      54.69692       0.844        
     84500   300.11726      9.7672002     -96394.772      54.726582      0.845        
     84600   302.39666      10.26594      -101316.95      54.756244      0.846        
     84700   298.9523       10.317314     -101823.98      54.785906      0.847        
     84800   300.13672      10.246725     -101127.31      54.815568      0.848        
     84900   302.4923       10.149778     -100170.52      54.84523       0.849        
     85000   297.24555      10.288932     -101543.86      54.874892      0.85         
     85100   298.07529      10.239439     -101055.4       54.904554      0.851        
     85200   300.72072      10.410924     -102747.83      54.934216      0.852        
     85300   299.69387      10.785617     -106445.77      54.963879      0.853        
     85400   302.12915      10.537432     -103996.37      54.993541      0.854        
     85500   299.30638      10.500669     -103633.55      55.023203      0.855        
     85600   307.10725      10.839397     -106976.53      55.052865      0.856        
     85700   299.06307      10.671592     -105320.43      55.082527      0.857        
     85800   302.67112      10.445435     -103088.43      55.112189      0.858        
     85900   301.11914      10.646029     -105068.13      55.141851      0.859        
     86000   303.90138      10.617666     -104788.21      55.171513      0.86         
     86100   298.97362      10.572597     -104343.42      55.201175      0.861        
     86200   302.4536       10.686351     -105466.08      55.230838      0.862        
     86300   299.22886      10.370166     -102345.59      55.2605        0.863        
     86400   306.31579      10.603132     -104644.78      55.290162      0.864        
     86500   299.92177      10.705621     -105656.27      55.319824      0.865        
     86600   301.13163      10.762628     -106218.88      55.349486      0.866        
     86700   298.53359      10.73424      -105938.71      55.379148      0.867        
     86800   303.09705      10.78737      -106463.07      55.40881       0.868        
     86900   295.48933      10.593676     -104551.45      55.438472      0.869        
     87000   298.8441       10.874307     -107321.07      55.468134      0.87         
     87100   297.27068      11.087375     -109423.88      55.497796      0.871        
     87200   300.5304       10.992254     -108485.11      55.527459      0.872        
     87300   299.3379       10.822017     -106805         55.557121      0.873        
     87400   302.58122      10.953748     -108105.09      55.586783      0.874        
     87500   298.48152      11.123285     -109778.28      55.616445      0.875        
     87600   294.5654       11.257817     -111106.01      55.646107      0.876        
     87700   300.38617      11.112734     -109674.16      55.675769      0.877        
     87800   296.3451       11.342042     -111937.25      55.705431      0.878        
     87900   308.07745      11.207973     -110614.09      55.735093      0.879        
     88000   299.56304      11.424079     -112746.9       55.764755      0.88         
     88100   295.37738      11.437862     -112882.92      55.794418      0.881        
     88200   297.50422      11.270473     -111230.92      55.82408       0.882        
     88300   296.79929      11.613781     -114619.11      55.853742      0.883        
     88400   299.74991      11.089514     -109444.99      55.883404      0.884        
     88500   302.23171      11.598153     -114464.87      55.913066      0.885        
     88600   291.00044      11.361985     -112134.07      55.942728      0.886        
     88700   299.72868      11.43318      -112836.72      55.97239       0.887        
     88800   299.69912      11.660837     -115083.52      56.002052      0.888        
     88900   298.75072      11.714916     -115617.23      56.031714      0.889        
     89000   299.95949      11.49786      -113475.06      56.061376      0.89         
     89100   299.76371      11.549769     -113987.36      56.091039      0.891        
     89200   295.59272      11.826416     -116717.65      56.120701      0.892        
     89300   298.84789      11.655259     -115028.46      56.150363      0.893        
     89400   298.24028      11.65483      -115024.23      56.180025      0.894        
     89500   303.07085      11.735956     -115824.88      56.209687      0.895        
     89600   300.45529      11.932262     -117762.27      56.239349      0.896        
     89700   301.16069      11.879811     -117244.62      56.269011      0.897        
     89800   298.64396      11.911734     -117559.68      56.298673      0.898        
     89900   303.1281       11.889362     -117338.88      56.328335      0.899        
     90000   301.63044      12.070979     -119131.3       56.357997      0.9          
     90100   302.45336      11.994254     -118374.08      56.38766       0.901        
     90200   301.31132      11.880885     -117255.22      56.417322      0.902        
     90300   298.52055      12.195477     -120360         56.446984      0.903        
     90400   296.06087      12.059945     -119022.41      56.476646      0.904        
     90500   298.66772      12.198442     -120389.26      56.506308      0.905        
     90600   296.4839       12.327491     -121662.88      56.53597       0.906        
     90700   298.82041      12.339286     -121779.29      56.565632      0.907        
     90800   302.36765      12.14553      -119867.06      56.595294      0.908        
     90900   301.83395      12.338265     -121769.21      56.624956      0.909        
     91000   298.36219      12.333504     -121722.22      56.654619      0.91         
     91100   298.16507      12.50703      -123434.78      56.684281      0.911        
     91200   293.66432      12.405083     -122428.65      56.713943      0.912        
     91300   296.52846      12.614767     -124498.07      56.743605      0.913        
     91400   303.00079      12.268396     -121079.65      56.773267      0.914        
     91500   302.18065      12.657642     -124921.21      56.802929      0.915        
     91600   295.59413      12.742068     -125754.44      56.832591      0.916        
     91700   298.99774      12.721133     -125547.83      56.862253      0.917        
     91800   301.49073      13.092922     -129217.09      56.891915      0.918        
     91900   302.3421       12.840454     -126725.43      56.921577      0.919        
     92000   294.89781      13.007236     -128371.44      56.95124       0.92         
     92100   302.9647       12.929592     -127605.15      56.980902      0.921        
     92200   299.44233      12.964965     -127954.26      57.010564      0.922        
     92300   299.79911      12.915981     -127470.82      57.040226      0.923        
     92400   306.34655      13.14293      -129710.63      57.069888      0.924        
     92500   300.13725      12.959013     -127895.51      57.09955       0.925        
     92600   295.74889      12.836864     -126690         57.129212      0.926        
     92700   298.2158       13.043256     -128726.93      57.158874      0.927        
     92800   301.33341      13.04843      -128777.99      57.188536      0.928        
     92900   300.03846      13.137582     -129657.86      57.218198      0.929        
     93000   300.88204      13.010557     -128404.22      57.247861      0.93         
     93100   299.60133      13.069534     -128986.27      57.277523      0.931        
     93200   305.13044      13.295321     -131214.62      57.307185      0.932        
     93300   302.83125      13.431117     -132554.82      57.336847      0.933        
     93400   300.10663      13.125246     -129536.11      57.366509      0.934        
     93500   294.26499      13.14533      -129734.32      57.396171      0.935        
     93600   301.07986      13.17163      -129993.88      57.425833      0.936        
     93700   301.49529      13.38323      -132082.21      57.455495      0.937        
     93800   301.77227      13.393147     -132180.08      57.485157      0.938        
     93900   300.44081      13.595908     -134181.18      57.51482       0.939        
     94000   299.48743      13.451115     -132752.18      57.544482      0.94         
     94100   302.18017      13.447243     -132713.97      57.574144      0.941        
     94200   303.71859      13.263733     -130902.86      57.603806      0.942        
     94300   294.6393       13.590754     -134130.31      57.633468      0.943        
     94400   299.22915      13.68528      -135063.21      57.66313       0.944        
     94500   303.70996      13.723235     -135437.8       57.692792      0.945        
     94600   303.90843      13.637344     -134590.13      57.722454      0.946        
     94700   303.51708      13.901897     -137201.05      57.752116      0.947        
     94800   301.8104       13.928801     -137466.58      57.781778      0.948        
     94900   300.62123      14.07635      -138922.78      57.811441      0.949        
     95000   298.36844      13.787351     -136070.58      57.841103      0.95         
     95100   301.83888      13.939295     -137570.14      57.870765      0.951        
     95200   306.85067      13.970641     -137879.51      57.900427      0.952        
     95300   304.55535      14.079314     -138952.02      57.930089      0.953        
     95400   299.45119      14.049136     -138654.2       57.959751      0.954        
     95500   297.7558       14.027459     -138440.26      57.989413      0.955        
     95600   298.85566      14.031304     -138478.21      58.019075      0.956        
     95700   305.80276      14.238656     -140524.6       58.048737      0.957        
     95800   306.24662      14.269592     -140829.92      58.0784        0.958        
     95900   297.59931      14.463376     -142742.42      58.108062      0.959        
     96000   301.45471      14.396209     -142079.54      58.137724      0.96         
     96100   298.69273      14.019779     -138364.46      58.167386      0.961        
     96200   302.46929      14.244532     -140582.6       58.197048      0.962        
     96300   297.90683      14.663185     -144714.39      58.22671       0.963        
     96400   303.94164      14.48837      -142989.1       58.256372      0.964        
     96500   302.41787      14.427925     -142392.55      58.286034      0.965        
     96600   302.40716      14.570829     -143802.9       58.315696      0.966        
     96700   302.49658      14.584375     -143936.59      58.345358      0.967        
     96800   302.56856      14.561901     -143714.79      58.375021      0.968        
     96900   296.03666      14.580449     -143897.85      58.404683      0.969        
     97000   307.32455      14.843795     -146496.87      58.434345      0.97         
     97100   300.40507      14.84308      -146489.81      58.464007      0.971        
     97200   300.32245      14.908989     -147140.28      58.493669      0.972        
     97300   301.38753      14.731727     -145390.84      58.523331      0.973        
     97400   302.51939      14.864031     -146696.58      58.552993      0.974        
     97500   302.03389      14.796501     -146030.11      58.582655      0.975        
     97600   305.65362      14.913541     -147185.2       58.612317      0.976        
     97700   296.74133      14.789371     -145959.75      58.641979      0.977        
     97800   299.91252      14.752667     -145597.51      58.671642      0.978        
     97900   301.94938      15.316993     -151166.97      58.701304      0.979        
     98000   296.34104      15.206189     -150073.41      58.730966      0.98         
     98100   299.3928       15.199965     -150011.99      58.760628      0.981        
     98200   295.70893      15.100818     -149033.49      58.79029       0.982        
     98300   302.1524       15.286604     -150867.05      58.819952      0.983        
     98400   301.15572      15.462337     -152601.4       58.849614      0.984        
     98500   304.37446      15.345992     -151453.17      58.879276      0.985        
     98600   296.89303      15.446558     -152445.67      58.908938      0.986        
     98700   301.80991      15.506501     -153037.26      58.938601      0.987        
     98800   298.30589      15.365279     -151643.51      58.968263      0.988        
     98900   298.73725      15.223337     -150242.66      58.997925      0.989        
     99000   300.17798      15.607703     -154036.05      59.027587      0.99         
     99100   301.36855      15.408361     -152068.7       59.057249      0.991        
     99200   296.23094      15.240882     -150415.81      59.086911      0.992        
     99300   296.06377      15.614656     -154104.67      59.116573      0.993        
     99400   299.51724      15.512541     -153096.87      59.146235      0.994        
     99500   301.57356      15.625766     -154214.32      59.175897      0.995        
     99600   299.0273       15.408645     -152071.5       59.205559      0.996        
     99700   296.45509      15.732819     -155270.86      59.235222      0.997        
     99800   305.20067      15.968024     -157592.14      59.264884      0.998        
     99900   300.085        15.742034     -155361.79      59.294546      0.999        
    100000   299.14812      15.820423     -156135.44      59.324208      1            
Loop time of 663.17 on 4 procs for 100000 steps with 2988 atoms

Performance: 13.028 ns/day, 1.842 hours/ns, 150.791 timesteps/s
233.9% CPU use with 1 MPI tasks x 4 OpenMP threads

MPI task timing breakdown:
Section |  min time  |  avg time  |  max time  |%varavg| %total
---------------------------------------------------------------
Pair    | 466.75     | 466.75     | 466.75     |   0.0 | 70.38
Bond    | 43.051     | 43.051     | 43.051     |   0.0 |  6.49
Neigh   | 74.426     | 74.426     | 74.426     |   0.0 | 11.22
Comm    | 11.226     | 11.226     | 11.226     |   0.0 |  1.69
Output  | 0.27058    | 0.27058    | 0.27058    |   0.0 |  0.04
Modify  | 66.207     | 66.207     | 66.207     |   0.0 |  9.98
Other   |            | 1.242      |            |       |  0.19

Nlocal:           2988 ave        2988 max        2988 min
Histogram: 1 0 0 0 0 0 0 0 0 0
Nghost:          13811 ave       13811 max       13811 min
Histogram: 1 0 0 0 0 0 0 0 0 0
Neighs:    1.01558e+06 ave 1.01558e+06 max 1.01558e+06 min
Histogram: 1 0 0 0 0 0 0 0 0 0

Total # of neighbors = 1015576
Ave neighs/atom = 339.88487
Ave special neighs/atom = 12.156627
Neighbor list builds = 4709
Dangerous builds = 0
unfix 1
unfix 2
unfix def1

print "All done"
All done
Total wall time: 0:11:03
