LAMMPS data file via write_data, version 23 Jun 2022, timestep = 751651

2988 atoms
18 atom types
3044 bonds
16 bond types
5800 angles
31 angle types

30.222448031590186 59.884551968408104 xlo xhi
27.307948031590183 56.9700519684081 ylo yhi
30.19145003159019 59.85355396840811 zlo zhi

Masses

1 1.00794
2 1.00794
3 12.0107
4 12.0107
5 1.00794
6 1.00794
7 1.00794
8 1.00794
9 15.9994
10 12.0107
11 12.0107
12 1.00794
13 15.9994
14 15.9994
15 12.0107
16 12.0107
17 1.00794
18 15.9994

Pair Coeffs # lj/cut

1 0.038 2.44997
2 0.038 2.44997
3 0.039 3.87541
4 0.039 3.87541
5 0.038 2.44997
6 0.038 2.44997
7 0 0
8 0.038 2.44997
9 0.228 2.85978
10 0.148 3.61705
11 0.039 3.87541
12 0.038 2.44997
13 0.228 2.85978
14 0.228 2.85978
15 0.148 3.61705
16 0.148 3.61705
17 0 0
18 0.228 2.85978

Bond Coeffs # harmonic

1 340.618 1.105
2 340.618 1.105
3 322.716 1.526
4 340.618 1.105
5 340.618 1.105
6 340.618 1.105
7 384 1.42
8 540.634 0.96
9 283.092 1.52
10 340.618 1.105
11 615.322 1.23
12 322.716 1.526
13 340.618 1.105
14 384 1.42
15 540.634 0.96
16 384 1.42

Angle Coeffs # harmonic

1 39.5 106.4
2 44.4 110
3 39.5 106.4
4 44.4 110
5 39.5 106.4
6 46.6 110.5
7 44.4 110
8 44.4 110
9 70 109.5
10 46.6 110.5
11 44.4 110
12 58.5 106
13 39.5 106.4
14 57 109.5
15 57 109.5
16 46.6 110.5
17 45 109.5
18 50 120
19 68 120
20 46.6 110.5
21 44.4 110
22 55 120
23 39.5 106.4
24 70 109.5
25 57 109.5
26 70 109.5
27 57 109.5
28 80 109.5
29 70 106
30 80 109.5
31 58.5 106

Atoms # full

992 2 3 0 33.046431380914235 30.145633395224287 34.874916328795464 0 0 1
994 2 1 0 34.11067403799071 30.373141869385197 34.69235497187085 0 0 1
986 2 4 0 32.20600610018981 31.18126493531817 34.00780356180636 0 0 1
991 2 8 0 32.88469966536982 30.233718754937254 35.9320685435193 0 0 1
993 2 4 0 32.80783599088046 28.702338823200858 34.54308105102996 0 0 1
985 2 3 0 32.6928473892945 32.58026661257602 34.32666506548692 0 0 1
987 2 1 0 33.36925395649819 32.69963805591627 35.19291677532077 0 0 1
979 2 4 0 33.341265948212296 33.15974017468693 33.060473741533215 0 0 1
988 2 5 0 32.38680591679885 30.89432048767305 33.00045320234337 0 0 1
978 2 3 0 34.679523133867995 32.473253348370214 32.61179012058784 0 0 1
998 2 8 0 33.914888111351 29.292966143123852 32.88863783823021 0 0 1
980 2 1 0 34.56122514334472 31.394914550686657 32.67803204727972 0 0 1
981 2 5 0 32.557925778161795 32.98312247434371 32.320575951923274 0 0 1
984 2 8 0 31.879645439387463 33.299697215835344 34.5433994070915 0 0 1
996 2 14 0 31.398946910611365 28.625725192560946 34.63907196229739 0 0 1
977 2 8 0 35.4783162567562 32.861089770734075 33.25297289839906 0 0 1
999 2 3 0 33.28787121787591 28.51356902328732 33.08522649221828 0 0 1
989 2 14 0 30.7729627246252 30.999835442588065 34.3647268398398 0 0 1
970 2 8 0 36.3288175523312 31.042105328581275 30.77532319603919 0 0 1
659 1 7 0 36.03545315835336 29.148758773157873 34.11459743498055 0 0 0
972 2 4 0 35.110893174133864 32.91968517987576 31.214129998207948 0 0 1
3018 14 12 0 30.35434995787515 32.28704924278238 32.798460214621585 -8 -2 2
971 2 3 0 35.56293295939504 31.71374285319655 30.345108382980836 0 0 1
973 2 1 0 34.67131656041883 31.107543732719094 30.25998555490388 0 0 1
3014 14 12 0 30.56311658335083 29.729407193312777 31.785110688151114 -8 -2 2
1769 3 7 0 30.79251683151272 31.700815972584394 35.768984216790976 1 0 0
658 1 9 0 36.51899150012862 29.532306370532726 33.37894343600576 0 0 0
982 2 9 0 33.513202593243 34.572721247312366 33.04635958059199 0 0 1
975 2 9 0 36.02545491080525 33.96275851793489 31.105568429923323 0 0 1
995 2 5 0 33.27957591210435 27.942926364101353 35.100327922777915 0 0 1
976 2 7 0 35.79613578906525 34.6016294798262 31.750339919820963 0 0 1
1768 3 9 0 30.529594455371736 32.07441205674844 36.62284391061357 1 0 0
2034 3 9 0 35.04601781938074 56.78029355219272 36.72637870573052 0 0 0
436 1 8 0 34.68207077229237 32.66525271941062 37.28992015791599 0 0 0
650 1 5 0 37.540798367058066 29.96103094182704 36.28524837866254 0 0 0
1004 2 7 0 35.49376388287677 27.79586679244288 33.63427893460342 0 0 1
1003 2 9 0 35.335264571458325 56.828110151298006 32.93948265805139 0 -1 1
2033 3 5 0 36.898283945255415 56.8802196765851 35.91813214611153 0 0 0
646 1 8 0 37.40698710326338 32.57114009795164 36.540772110723395 0 0 0
3012 14 16 0 59.63192042151523 31.420242536058623 33.24472270201015 -9 -2 2
441 1 9 0 35.55409550079038 34.21628686459111 35.86353605735145 0 0 0
1001 2 1 0 32.50271426334608 28.59785623299502 32.337191091350626 0 0 1
2035 3 7 0 35.16250390171111 28.070031714220914 36.83309406607316 0 1 0
974 2 5 0 34.139280592935144 33.379796896212625 30.836783969007133 0 0 1
1032 2 7 0 30.285968935152145 33.669278450963965 30.303875407083037 0 0 1
1031 2 9 0 31.20785815693313 33.96813297291868 30.266736891430252 0 0 1
664 1 5 0 37.445556241116016 28.733063904749887 31.12275748644415 0 0 0
647 1 3 0 38.25186102236955 31.997899522997045 36.79848742687592 0 0 0
648 1 4 0 38.23605761700679 30.70431109263873 35.966239371643915 0 0 0
656 1 1 0 37.43838379350858 31.649177310466847 34.33491447660098 0 0 0
651 1 9 0 39.42486150660014 29.980778162184052 36.308137713763486 0 0 0
657 1 5 0 38.21220590958483 28.661407698347308 34.21687293282484 0 0 0
655 1 4 0 37.906723720646696 29.584125285893847 33.76660775882891 0 0 0
663 1 1 0 38.7044939487537 30.57836315663298 31.975744242476427 0 0 0
661 1 3 0 38.767326536362006 29.66941917147079 32.53800179679416 0 0 0
654 1 3 0 38.18731372717554 30.821120072961584 34.50301303276726 0 0 0
660 1 8 0 39.78985478401562 29.563496140810056 32.85795417434589 0 0 0
662 1 4 0 38.416564177301616 28.45269096149051 31.59094585308906 0 0 0
653 1 8 0 39.19735352831073 31.141773647858212 34.1019127770252 0 0 0
1935 3 5 0 40.95826268946142 32.11746973817631 32.9370555268913 0 0 0
1697 3 5 0 42.345871659708095 30.345346829310945 34.360086570920146 0 0 0
1695 3 4 0 42.91156331251581 29.449663635223963 34.75413498964176 0 0 0
1691 3 9 0 42.93852975755108 32.097365150120986 35.95809161339162 0 0 0
1693 3 8 0 42.04437622757874 29.534203162781463 36.69961510139977 0 0 0
1694 3 3 0 43.063687134239146 29.71301672814678 36.25196733084355 0 0 0
1933 3 4 0 41.02303965593782 33.06484441967935 32.310695115666206 0 0 0
1688 3 4 0 43.54629203071535 31.058528694224886 36.719853621858896 0 0 0
1696 3 1 0 43.82823764355044 28.96361656974494 36.64939272802526 0 0 0
1928 3 5 0 42.35574186040085 31.03755811874036 31.299763374202385 0 0 0
1692 3 7 0 43.54057894284589 32.850511598832995 35.921123934100635 0 0 0
1926 3 4 0 42.303647051404155 31.773495518881145 30.419291188163474 0 0 0
1932 3 3 0 41.27218278548767 32.86111326027141 30.794164739087638 0 0 0
643 1 5 0 40.14627554823585 32.591062102370095 35.79069535348275 0 0 0
1704 3 5 0 41.960576861316476 28.37883186746152 32.32503790140818 0 0 0
640 1 3 0 39.2547287180878 34.16795411510798 36.94208892065289 0 0 0
667 1 8 0 40.50306134294299 28.770860532579526 30.742325257462944 0 0 0
641 1 4 0 39.56572841582314 32.67810134680652 36.78187495873094 0 0 0
1938 3 8 0 39.36122017191208 33.558097747675646 33.646164813502146 0 0 0
1939 3 3 0 39.70281757262429 33.835390507692225 32.63752885297056 0 0 0
1698 3 14 0 44.18960837317285 29.49122382825259 34.09847764279236 0 0 0
1941 3 1 0 38.92650458426445 33.469147891290994 31.90408144225224 0 0 0
1690 3 5 0 44.62068924744228 31.201965716877336 36.55810907520302 0 0 0
1921 3 5 0 44.580492627678545 30.833525557842982 31.088185107976667 0 0 0
652 1 7 0 39.68616073070317 30.46993092056835 37.10004151900813 0 0 0
1711 3 5 0 44.199301025585484 28.85104103603755 32.04196796825575 0 0 0
1934 3 1 0 41.486906529544214 33.86208737374816 30.390142202951935 0 0 0
1936 3 9 0 42.095410059574775 33.843936482876295 32.81220890481849 0 0 0
1937 3 7 0 42.66746834087662 33.91839465824164 32.02814426236924 0 0 0
1701 3 3 0 42.113776292732666 28.209581668690763 34.483419676398285 0 0 0
1700 3 8 0 41.10379126493251 28.54868860100862 34.782460720542076 0 0 0
1709 3 4 0 44.498427551187845 27.81188744408943 32.15754826313872 0 0 0
637 1 9 0 41.499534164537714 34.912893863888364 36.18580339979569 0 0 0
639 1 8 0 38.72606022355639 34.589415971179086 36.03890871636152 0 0 0
1929 3 9 0 41.7285871283937 31.05337363093943 58.999074637886224 0 0 -1
1931 3 8 0 40.306613687373414 32.59608784834463 30.21076406519043 0 0 0
668 1 3 0 39.50651167140457 28.236746179727273 30.516105000112063 0 0 0
638 1 7 0 41.736710546740156 33.97484802029226 36.16504086318441 0 0 0
665 1 9 0 38.26795481748727 56.898572310122404 32.30037843703891 0 -1 0
1687 3 3 0 43.18550097094637 31.258076663414805 38.22263086382343 0 0 0
1919 3 4 0 44.86941955973053 31.576827039139655 30.351457968568557 0 0 0
2926 8 12 0 44.64393256202018 27.721728579356892 34.94832819562029 3 5 8
1920 3 1 0 45.54153793333988 32.98288233483124 31.82664451645727 0 0 0
1914 3 5 0 47.19410051220694 30.83377120118107 31.591028612741564 0 0 0
2914 8 16 0 45.13290495756809 28.462471785531733 34.30878070626421 3 5 8
1918 3 3 0 45.942524103128 32.502222317971444 30.972744095077527 0 0 0
1912 3 4 0 47.29124067721233 31.839308036929417 31.098284254659205 0 0 0
2915 8 11 0 46.35069461383111 29.056810120097424 34.98580424581822 3 5 8
2917 8 12 0 46.35869215917053 30.120564568212906 35.0699574442709 3 5 8
1907 3 5 0 47.29496404528774 32.19772237546215 33.979108608647515 0 0 0
2918 8 12 0 47.03530492118139 28.761113937796225 34.160496567571855 3 5 8
1905 3 4 0 48.254003664230424 32.3193910349148 33.489157577679535 0 0 0
1730 3 4 0 50.426038166001085 28.283587479851626 31.76700449503345 0 0 0
1725 3 5 0 47.65786463655036 27.60450591837593 31.99260976839947 0 0 0
1733 3 9 0 49.855770645876845 28.07024435159539 33.06577985581875 0 0 0
1911 3 3 0 48.219353987495296 32.661109050972286 31.984502210927854 0 0 0
1910 3 8 0 49.29192869154703 32.520077872052596 31.67496845980847 0 0 0
1904 3 3 0 49.09690075871832 33.34407813349203 34.17907236989061 0 0 0
1903 3 8 0 50.20076447246342 33.295379152286486 33.84977168404519 0 0 0
2916 8 11 0 46.79589979749565 28.548591422407906 36.344605140055094 3 5 8
1898 3 4 0 49.19384512270102 32.96299397662451 35.684136187770584 0 0 0
1913 3 1 0 47.95147568395927 33.73546529068386 31.902870685067484 0 0 0
1908 3 9 0 48.88629812026092 31.002338481438443 33.53526766051695 0 0 0
1734 3 7 0 48.99758911096234 28.50109755067731 33.10078769121841 0 0 0
2919 8 11 0 48.150816039957924 29.130675038188183 36.82360616645494 3 5 8
1901 3 9 0 50.564330558516744 33.080988549574975 36.02615112052219 0 0 0
2924 8 12 0 48.887111047132215 29.304188051379935 36.017735938679344 3 5 8
1909 3 7 0 49.62721709230054 30.957308966694573 32.96046682734255 0 0 0
1906 3 1 0 48.67854842686654 34.33180781263749 33.963341773580886 0 0 0
1712 3 14 0 45.543523420030354 27.768343353275913 33.09322955785585 0 0 0
1900 3 5 0 48.96514359523832 31.863560227721628 35.87453185792213 0 0 0
1723 3 4 0 48.23055670367043 27.379579432515442 31.04245893218438 0 0 0
1718 3 5 0 46.204709144389476 29.092712770643324 30.59038768649545 0 0 0
1736 3 3 0 51.332972016286845 29.539625995702245 31.74832516106604 0 0 0
1735 3 8 0 50.714021456576035 30.440212489846598 31.842941473141188 0 0 0
1902 3 7 0 50.77043816084495 32.33506505748651 36.60255013915621 0 0 0
1897 3 3 0 48.375257207932066 33.936206060068486 36.66769631045641 0 0 0
1899 3 1 0 47.32055458303394 33.71537283136589 36.55339201276353 0 0 0
1729 3 3 0 49.39394815132461 28.32207715100095 30.735954773465092 0 0 0
1741 3 7 0 50.85134050605595 29.985061509485245 33.942620294658646 0 0 0
2920 8 12 0 46.78749816279673 27.412006140768998 36.31234989526282 3 5 8
5 1 2 0 51.387870743334766 30.493256720993525 37.508532576130634 -1 1 0
2923 8 12 0 47.877979632882116 30.0616150632717 37.28877185546813 3 5 8
2921 8 12 0 45.998380314702416 28.95175763748691 37.06787280942742 3 5 8
2 1 3 0 51.58790769946735 29.389471258813337 37.396287036601315 -1 1 0
4 1 1 0 51.20904266460248 29.22541611441929 36.41349107218465 -1 1 0
1 1 8 0 52.66733456678786 29.35271646441832 37.26274664088946 -1 1 0
3009 14 11 0 59.4015169868789 30.130010584929472 32.38750546776022 -9 -2 2
1783 3 7 0 54.91952234175129 31.61491282916185 36.074637219870525 0 0 0
1760 3 5 0 59.13182997028205 33.740948310500556 33.66476038705567 0 0 0
1740 3 9 0 51.796681295702996 30.020860738886302 34.049664543217354 0 0 0
1739 3 5 0 52.73061418893569 28.48902466108417 33.18542831150239 0 0 0
1737 3 4 0 52.36819923691541 29.497546929733737 32.91349558784703 0 0 0
1766 3 1 0 59.27523327756735 34.16309328918908 35.68490556231641 0 0 0
1746 3 5 0 53.256718025052876 32.00732063555776 33.997715095765244 0 0 0
1743 3 3 0 53.58055263867834 30.448738328986423 32.54556360952582 0 0 0
1745 3 1 0 54.4516436248942 30.025634730849244 33.080286790330085 0 0 0
1744 3 4 0 53.52932729130656 31.9064328559889 32.95704419566091 0 0 0
1761 3 14 0 58.414958144186215 31.82467237292801 33.852120387271455 0 0 0
3010 14 12 0 58.495324962552914 29.132584293400303 34.23338856892921 -9 -2 2
3013 14 12 0 58.71214499110606 30.391554668445593 31.537397826426087 -9 -2 2
3006 14 11 0 58.6763702296072 28.97241986872703 33.107333493131044 -9 -2 2
3011 14 12 0 57.71915571386581 28.70218783500943 32.68303399336065 -9 -2 2
1752 3 1 0 55.49771632043047 31.940592947122596 32.016036455255126 0 0 0
1753 3 5 0 56.19131709868472 31.875950056122736 34.417816810242144 0 0 0
1758 3 4 0 58.32005869753837 33.17704521846303 34.128709433292165 0 0 0
1750 3 3 0 54.92078718977358 32.54229278026659 32.75846425837006 0 0 0
1751 3 4 0 55.81178773018867 32.800400118812206 33.96721774296157 0 0 0
1773 3 1 0 57.32707148258858 30.78884586938545 35.950010175449776 0 0 0
1764 3 3 0 58.46805729369228 33.480364886687475 35.596220547092145 0 0 0
1757 3 3 0 56.99138310416029 33.61939018125919 33.52815446813254 0 0 0
1782 3 9 0 54.595175033229914 30.944343578825347 36.68974367513463 0 0 0
1770 3 8 0 58.815958524097645 30.254795604315106 36.872417020645685 0 0 0
1771 3 3 0 58.02266390169973 31.042316515125513 36.849783871453624 0 0 0
1765 3 4 0 58.79184560494615 32.34778749245336 36.63828496944727 0 0 0
1763 3 8 0 57.631019877180634 34.166728949441236 35.90088460633587 0 0 0
2192 4 8 0 58.379089919950616 28.088428856608115 37.15562517194039 -1 1 0
1759 3 1 0 57.03133706810007 33.5119717386653 32.44528321566092 0 0 0
1754 3 9 0 55.10950264718041 33.47370515923457 34.976908610089886 0 0 0
1755 3 7 0 54.832012931965195 32.78660277834388 35.595432804119355 0 0 0
1742 3 8 0 53.920672552533375 30.227479527268972 31.459022113834994 0 0 0
1756 3 8 0 56.74021865265367 34.6709398778576 33.81390736530001 0 0 0
1749 3 8 0 54.75432451443284 33.53626824133073 32.24303896392261 0 0 0
1784 3 8 0 53.24926577484121 32.99694362588216 37.30322185296613 0 0 0
1747 3 9 0 52.573012045636204 32.50010760373326 32.13224258874702 0 0 0
1748 3 7 0 52.04923640855538 33.06952232782471 32.72549382416715 0 0 0
983 2 7 0 34.41900776827455 34.77176399973471 33.299549026095306 0 0 1
442 1 7 0 36.386662640915155 34.70266409055924 35.92418173512658 0 0 0
1956 3 5 0 35.59233056142982 36.23711628716675 32.415453647426126 0 0 0
1954 3 4 0 35.60007233053977 37.298701061013794 32.217800362067024 0 0 0
1960 3 3 0 34.32471492333127 37.915833416732404 32.76656444776705 0 0 0
1961 3 4 0 33.24599489758702 38.4467349777573 31.848034576913072 0 0 0
1962 3 1 0 33.889891332643955 37.23572932650026 33.55133698038525 0 0 0
1959 3 8 0 34.65631985479682 38.7953434342113 33.43367288526026 0 0 0
1963 3 5 0 32.45467819094485 38.80335941527671 32.51422641130078 0 0 0
1955 3 1 0 36.84375153866578 38.41072177940837 33.72629210610525 0 0 0
1953 3 3 0 36.83864460336917 38.06057966698069 32.656338137544154 0 0 0
2109 4 4 0 30.85534728587111 38.20877818690823 35.802782374518706 0 0 0
2116 4 3 0 32.10534930777623 38.24928414181639 36.70353462644662 0 0 0
1964 3 14 0 32.62403428599033 37.39690709764273 31.088705387525955 0 0 0
2108 4 3 0 30.556031592004228 36.83717973770871 35.21731663742091 0 0 0
452 1 4 0 36.003747532387735 39.56902927969057 36.862188327922205 0 0 0
454 1 5 0 35.18990342656015 39.542506690883684 36.18501450107432 0 0 0
2110 4 1 0 59.094274602153675 36.65150874594707 35.31523430127284 -1 0 0
2115 4 8 0 32.92937577025415 38.785697541450894 36.162273059905665 0 0 0
1976 3 1 0 33.23153483484125 41.03975207606321 33.3068754367356 0 0 0
447 1 5 0 34.64719114072086 37.213201444359626 36.288884301070084 0 0 0
1978 3 9 0 30.840937632830645 41.985739286466725 32.80207937668335 0 0 0
2118 4 1 0 32.46162261535572 37.20247383625308 36.88020175443169 0 0 0
445 1 4 0 35.584211586702494 37.0909184985927 36.82486510444486 0 0 0
2971 11 12 0 30.972504553231882 38.667984474356594 31.198284628179056 1 0 1
1968 3 4 0 32.96570082562683 41.09053823426469 31.21843157672962 0 0 0
1952 3 8 0 36.639833112038644 39.050366361277334 32.16409172542236 0 0 0
1969 3 1 0 34.70106905645562 39.779905847753795 31.27749351080797 0 0 0
2107 4 8 0 31.05257411045337 36.07550533705925 35.80712942798123 0 0 0
1967 3 3 0 33.659277455298565 39.70713364509035 30.997917794653073 0 0 0
1970 3 5 0 31.897551359284417 40.93763146718396 31.20573885390181 0 0 0
1979 3 7 0 30.615273362484746 41.74400879817112 31.91846158005361 0 0 0
224 1 14 0 30.41002539061381 36.719474430249115 31.30339051371979 1 0 0
1974 3 3 0 33.202148849918636 41.82323497301912 32.54735912867717 0 0 0
2122 4 8 0 32.56199427364528 40.81384319279533 36.83425876126437 0 0 0
440 1 5 0 33.80686619999849 35.143695122932826 36.38052331663322 0 0 0
438 1 4 0 34.73425096327627 34.7608981641887 36.860373769265884 0 0 0
463 1 7 0 34.965373751390814 42.66204017846109 35.358305790395214 0 0 0
444 1 3 0 35.44485245847445 35.79491882441712 37.58726121410366 0 0 0
2959 11 16 0 31.283622925176015 37.73702538543721 30.790100461830455 1 0 1
2111 4 2 0 30.868439567357754 36.75144042495042 34.14221786483406 0 0 0
1957 3 9 0 35.555584746404506 37.344841324050186 30.8404083889088 0 0 0
1958 3 7 0 35.10380519069779 38.12026275731078 30.501159473306807 0 0 0
1971 3 9 0 33.38062300658117 41.89672770264863 59.78437813257156 0 0 -1
448 1 9 0 36.63623057540225 36.924689301699715 35.891544125607965 0 0 0
2114 4 7 0 31.517883372514476 39.85743337103514 35.02041016251225 0 0 0
462 1 9 0 34.79716023037388 42.3413137030918 36.243539795693536 0 0 0
461 1 5 0 36.87031091377082 42.194345882614996 36.22986959695099 0 0 0
459 1 4 0 36.03901641085825 42.17212706920072 36.96627308233778 0 0 0
1966 3 8 0 33.63551427938046 39.38270881539724 59.67946613871938 0 0 -1
1945 3 8 0 37.58011536856774 35.33437887824235 33.171275035893544 0 0 0
1949 3 5 0 38.91093707373073 37.74608191968089 33.36222065117747 0 0 0
449 1 7 0 36.457308404308996 36.13935594720029 35.36126917363377 0 0 0
1948 3 1 0 37.78923400174293 35.676739209157134 31.485743003103515 0 0 0
1947 3 4 0 38.22627292266033 37.4296464033138 32.53585876650618 0 0 0
1946 3 3 0 38.2551756663097 35.88900232236935 32.455426632559224 0 0 0
634 1 4 0 40.445882857058564 35.152326261636674 37.15511877144796 0 0 0
1944 3 7 0 40.30546007738984 36.655949852024335 33.95610333235994 0 0 0
1943 3 9 0 40.36946138916942 35.70717709709257 33.788046458628344 0 0 0
1950 3 9 0 38.76505866958767 38.03571337710875 31.366065659678565 0 0 0
1951 3 7 0 38.39057930099968 37.56115708305285 30.61057657723594 0 0 0
1942 3 5 0 40.40050064618344 35.74978728103709 31.920742526117024 0 0 0
1940 3 4 0 39.71457090368658 35.332440999383245 32.60406033905767 0 0 0
928 2 8 0 42.03818252619291 36.93893849283875 31.41011511993284 0 0 1
926 2 14 0 42.738850359708024 37.38827720719063 33.58071821248804 0 0 1
629 1 5 0 41.79761342676591 37.33793064764663 36.87751481646316 0 0 0
623 1 14 0 41.538993893975125 38.93510058910524 34.702732697678734 0 0 0
923 2 4 0 43.758342929647284 36.999948584476805 32.660731821652554 0 0 1
929 2 3 0 43.07484026387704 36.67668530205282 31.349791557113566 0 0 1
3031 15 12 0 43.72157743697266 38.792091459706526 34.71759596689987 27 -21 0
3019 15 16 0 42.804740530021775 38.76580723145641 34.04363347238379 27 -21 0
3023 15 12 0 42.35672259368481 39.23764194881565 31.956034566568455 27 -21 0
3022 15 12 0 42.274749419119736 40.59679319295569 33.022870139137936 27 -21 0
3020 15 11 0 42.854931253962604 39.716272003004086 32.78814972697761 27 -21 0
626 1 3 0 40.67692623596125 39.047294251658116 37.07759415602775 0 0 0
620 1 4 0 41.69181378685523 39.60915402335474 36.03446236828611 0 0 0
622 1 5 0 42.72360827963549 39.4327804216142 36.37560942443844 0 0 0
625 1 8 0 39.64984046589789 38.98576870385763 36.613631975212215 0 0 0
613 1 4 0 40.23345026012592 41.50586584244539 35.236478008962564 0 0 0
617 1 7 0 38.69231396413884 40.60136831953185 34.677124764203036 0 0 0
616 1 9 0 39.582859668577164 40.64832124436302 34.29966215123536 0 0 0
627 1 4 0 41.03477996119652 37.62073946405353 37.51066887647795 0 0 0
621 1 1 0 42.386243894788144 41.42926152026254 35.26572770697111 0 0 0
3021 15 11 0 44.270572375546934 40.267357778698084 32.45547512628548 27 -21 0
619 1 3 0 41.551893125376665 41.102373616720925 35.79567997076812 0 0 0
615 1 5 0 39.56006071372133 41.662103519139265 36.13663288082159 0 0 0
3026 15 12 0 44.362518575191395 41.324540604480504 32.92629686512665 27 -21 0
618 1 8 0 41.625518204030435 41.6017143098903 36.755046222345946 0 0 0
931 2 1 0 43.147959825918164 35.63839734694475 31.14741591040937 0 0 1
633 1 3 0 39.94882827482257 36.59150842141645 37.14298005450117 0 0 0
632 1 8 0 39.37703054256548 36.81397544763293 36.189086978173876 0 0 0
925 2 5 0 44.38734915696928 37.80712710906664 32.42702667923399 0 0 1
3024 15 11 0 44.52153816278597 40.18448047001972 30.933756239209295 27 -21 0
3028 15 12 0 45.011562333094574 41.167838685466016 30.644718499054747 27 -21 0
611 1 8 0 41.166152213449145 42.78789360431017 33.8269070327278 0 0 0
456 1 7 0 37.448154991273505 38.68920901173882 35.94067586472866 0 0 0
1896 3 8 0 48.42615060859766 34.976653528345565 36.30680337537952 0 0 0
921 2 8 0 44.33642848048789 35.71048706426952 34.27870687488305 0 0 1
191 1 8 0 51.399786547870555 35.969804938418044 34.65022485269827 0 0 0
900 2 8 0 49.94943594438605 35.282428247146754 30.606334874838286 0 0 1
924 2 1 0 44.69532943795943 35.014687857518936 32.71836887460348 0 0 1
922 2 3 0 44.679048603355994 35.972957700603715 33.27094744069063 0 0 1
3025 15 12 0 45.103036151640794 39.70115534758318 32.93879137117287 27 -21 0
918 2 5 0 46.013312903882145 37.62321281880663 33.59457058140547 0 0 1
917 2 1 0 46.18172582440706 35.95512909899807 31.142950739628244 0 0 1
916 2 4 0 46.119316861748885 36.57749898079241 33.28477435289855 0 0 1
915 2 3 0 46.80396191616673 36.47865678939704 31.940599005453002 0 0 1
919 2 9 0 46.91056398027344 35.903991082536955 34.28559130714587 0 0 1
920 2 7 0 46.87732720781472 36.50114290002708 35.04885035424281 0 0 1
914 2 8 0 47.72779309360158 35.79758306237197 32.11037322717709 0 0 1
911 2 5 0 48.231337954915546 38.15469486022055 32.11145731071967 0 0 1
275 1 8 0 47.88256665214913 38.49866738003183 34.80390830288561 0 0 0
198 1 8 0 52.16796720729644 36.77198292824484 31.920548191087025 0 0 0
912 2 14 0 46.55865373685587 38.941229829005344 31.357272872521385 0 0 1
276 1 3 0 47.83866396284998 39.5132278027657 35.30025630235909 0 0 0
278 1 1 0 46.92118934310993 39.84884864797938 34.83631291298252 0 0 0
271 1 1 0 48.072537296580364 40.71577813406387 32.89012101793309 0 0 0
273 1 9 0 50.11288995589146 40.04034263830507 35.49358530322972 0 0 0
268 1 8 0 49.598982858006465 39.765090668928444 33.13682126249992 0 0 0
270 1 4 0 48.90287026369795 40.55236120836912 35.00263277393742 0 0 0
269 1 3 0 49.00185046840048 40.67632580848566 33.460095725667166 0 0 0
189 1 9 0 51.30139006123551 37.42778788974154 36.345726621783975 0 0 0
274 1 7 0 50.48390341118119 40.72665126150371 36.047724876710696 0 0 0
256 1 4 0 51.85637447012057 40.71995963887944 31.937038833565005 0 0 0
277 1 4 0 47.69321532920628 39.19619514551382 36.72433784209238 0 0 0
282 1 8 0 45.625477839799956 38.614993519666214 36.38658051901685 0 0 0
190 1 7 0 51.42954341897514 38.20048704012389 36.87567825286581 0 0 0
909 2 4 0 47.438549034785666 37.79022572881399 31.38591101881282 0 0 1
261 1 8 0 49.91157105068838 40.698085620622926 31.17923614066306 0 0 0
280 1 9 0 48.255126384932176 37.880231127019165 37.005971290403274 0 0 0
272 1 5 0 48.58589871363971 41.44487021936186 35.49704618023695 0 0 0
285 1 1 0 45.922778768424664 40.34081254020232 36.949538410797956 0 0 0
186 1 4 0 52.518849833696635 36.704867874452844 36.253809881250845 0 0 0
262 1 3 0 50.518090978734584 41.358203854532114 31.725389810835395 0 0 0
263 1 4 0 49.801148820821865 41.78363791910862 33.006957812452846 0 0 0
905 2 9 0 50.09586011083256 37.587702109798286 30.849066480062394 0 0 1
258 1 5 0 51.90966030951657 40.372630002098745 33.00058336826046 0 0 0
259 1 9 0 52.068309107153695 39.62876033836352 31.07821060506049 0 0 0
260 1 7 0 51.266272659842656 39.25815493067183 31.411403570618575 0 0 0
184 1 8 0 51.96583264961468 35.05418647142578 37.56500149256169 0 0 0
906 2 7 0 49.586002943775945 38.204594998790114 31.34337591371947 0 0 1
201 1 1 0 52.65371819038188 35.14206022830267 32.49984165062645 0 0 0
197 1 7 0 54.79243294764051 36.49617957801154 35.00646491833937 0 0 0
2112 4 5 0 59.5684517478002 38.55427745072139 36.33581866979435 -1 0 0
192 1 3 0 52.46474844518349 35.996352291435386 34.85848986432372 0 0 0
194 1 1 0 52.74207366249182 34.956448323071726 35.06894926408534 0 0 0
196 1 9 0 54.691340022669834 36.50663155008776 34.055830001065345 0 0 0
187 1 1 0 53.69211669501055 35.09035255039503 37.094227303339196 0 0 0
188 1 5 0 53.35774868597148 37.424553931440094 36.18067001099741 0 0 0
2113 4 9 0 31.04964508972939 39.060200732375 34.693586006182 0 0 0
195 1 5 0 53.06601830312143 37.76921191789106 33.72332296288515 0 0 0
199 1 3 0 52.99086348765994 36.15811562041387 32.41923684355917 0 0 0
193 1 4 0 53.31887199015965 36.64238852574408 33.795120898012996 0 0 0
219 1 8 0 58.61170611081647 35.01358160451757 31.33086936491566 0 0 0
222 1 1 0 56.96997509067474 35.71423527605133 31.45827680164506 0 0 0
203 1 9 0 54.52463911207997 37.65776563849051 31.580296577254224 0 0 0
200 1 4 0 54.21136186741499 36.269014984936156 31.56825316821683 0 0 0
202 1 5 0 55.03535076403564 35.568536250626195 31.767093649320728 0 0 0
226 1 8 0 59.140995934988695 38.110241858706054 32.89904462703518 0 0 0
227 1 3 0 58.22827733419079 37.8168421889233 32.42680995254368 0 0 0
229 1 1 0 57.68027302719808 37.11620890755829 33.1583830135117 0 0 0
220 1 3 0 57.883678478063146 35.81651772681478 30.93099709597279 0 0 0
221 1 4 0 58.69632804236667 37.138166112148845 31.15648304368795 0 0 0
228 1 4 0 57.39845142919491 39.12160948504515 32.331214789599684 0 0 0
2988 12 12 0 57.834258905110175 39.46302179124005 34.71214296046554 0 0 0
231 1 14 0 56.39097551112043 39.12689567037849 33.29613320477072 0 0 0
230 1 5 0 57.96361789759361 39.97483878831157 32.64742514624779 0 0 0
234 1 3 0 56.75367370627323 39.460006551193004 30.943877886525144 0 0 0
1192 2 14 0 55.853902464237066 39.320651569344975 35.44620853426539 0 0 0
2982 12 16 0 56.8200127910135 39.755462360335606 34.46592722314982 0 0 0
233 1 8 0 55.90257643739299 40.13309095941466 31.13518965694736 0 0 0
2979 12 11 0 56.54133435509134 41.27783811431234 34.451130366682726 0 0 0
1190 2 1 0 57.40322008570836 37.44728135341255 36.567722903160636 0 0 0
1188 2 3 0 56.62452927213505 37.915837010723514 37.23432280354098 0 0 0
1187 2 8 0 55.76629170551694 37.27416138421751 36.9448073575431 0 0 0
1189 2 4 0 56.31702824102743 39.347200339997485 36.76889626186622 0 0 0
1191 2 5 0 57.24048945679902 39.954260009484685 36.962153041936475 0 0 0
1197 2 1 0 54.29966778305143 40.137034833248585 36.70703049738245 0 0 0
2983 12 12 0 56.18282063116712 41.57233305768607 33.491735479105884 0 0 0
2984 12 12 0 55.72819101816155 41.47710111158434 35.1775058698535 0 0 0
1195 2 3 0 55.08545563820498 40.00144799064084 37.455560728058806 0 0 0
204 1 7 0 53.91034400305689 38.06497037227456 30.96076588626832 0 0 0
2981 12 12 0 58.64888069510208 41.64713992196866 34.26284954550381 0 0 0
1198 2 5 0 56.020125907755244 41.84182401141383 37.52380453620972 0 0 0
1183 2 1 0 57.506132447478194 35.84481427129387 37.72948764791222 0 0 0
185 1 3 0 52.78456590813042 35.708202762478315 37.42011441715321 0 0 0
236 1 1 0 56.43336106562808 38.64014446238663 30.427624915585422 0 0 0
237 1 5 0 58.68481296175929 40.27487136748732 59.815280115034994 0 0 -1
223 1 5 0 58.63836083942103 37.832103228769135 30.286829889186077 0 0 0
1975 3 4 0 31.97515956166092 42.75230899736863 32.70375775319342 0 0 0
1973 3 8 0 34.16461807140514 42.25037904242427 32.561329274454664 0 0 0
1983 3 1 0 31.7545037483297 43.12341628812466 34.78325023067259 0 0 0
1977 3 5 0 31.912643506923498 43.418005140815 31.833122461463812 0 0 0
1980 3 8 0 33.24589728339262 43.76302908062601 34.052015174012595 0 0 0
1981 3 3 0 32.13006746235183 43.64391123934911 33.96774239969855 0 0 0
1984 3 5 0 31.072388178706248 45.373032213234666 34.81563460764528 0 0 0
1990 3 1 0 32.71713465845082 45.647916812061176 32.27992506256479 0 0 0
1988 3 3 0 31.932765857484195 46.033250093924735 32.932751490848766 0 0 0
1998 3 5 0 34.27858670723885 48.79261480429183 35.03548552414546 0 0 0
1996 3 4 0 34.708448430158526 48.43434549197214 34.08034426332693 0 0 0
1995 3 3 0 34.0815773075019 47.19963798050291 33.494207877461086 0 0 0
1997 3 1 0 34.53329106564264 46.28968763313169 34.000735995126725 0 0 0
1989 3 4 0 32.612577167740255 47.12393559539181 33.76773287995531 0 0 0
1991 3 5 0 32.593744868809075 46.97825937307473 34.870619195802014 0 0 0
1992 3 9 0 31.999706799058778 48.41612977884124 33.437071691278305 0 0 0
2002 3 3 0 36.16775366347106 48.10438370187383 34.30837247992481 0 0 0
2004 3 1 0 36.26123924301146 47.3061016459901 35.11445100767111 0 0 0
1994 3 8 0 34.25120246159488 47.135371441532435 32.38462884606983 0 0 0
1982 3 4 0 31.29380855386047 44.9288748924168 33.82414966388505 0 0 0
1993 3 7 0 31.051177247454213 48.32245069003801 33.47593830205893 0 0 0
1987 3 8 0 31.243975723599707 46.54707905777559 32.20517706885049 0 0 0
1999 3 9 0 34.835986689390666 49.33360280983505 32.95295654627697 0 0 0