LAMMPS (23 Jun 2022 - Update 1)
OMP_NUM_THREADS environment is not set. Defaulting to 1 thread. (src/comm.cpp:98)
  using 1 OpenMP thread(s) per MPI task
Loaded 1 plugins from C:\Users\HP\AppData\Local\LAMMPS 64-bit 23Jun2022\plugins
# Initialization
units			real
dimension		3
processors		* * *
boundary		p p p
atom_style		full
pair_style		lj/cut 10.0
bond_style		harmonic
angle_style 	harmonic
read_data		crosslinked.data
Reading data file ...
  orthogonal box = (29.738884 26.824384 29.707886) to (60.368116 57.453616 60.337118)
  1 by 1 by 1 MPI processor grid
  reading atoms ...
  2988 atoms
  scanning bonds ...
  4 = max bonds/atom
  scanning angles ...
  6 = max angles/atom
  reading bonds ...
  3044 bonds
  reading angles ...
  5800 angles
Finding 1-2 1-3 1-4 neighbors ...
  special bond factors lj:    0        0        0       
  special bond factors coul:  0        0        0       
     4 = max # of 1-2 neighbors
     7 = max # of 1-3 neighbors
    16 = max # of 1-4 neighbors
    20 = max # of special neighbors
  special bonds CPU = 0.009 seconds
  read_data CPU = 0.079 seconds

#output

thermo			100
thermo_style	custom step temp pe press vol lx density
dump			1 all custom 100 after_cross_linking_correctm.lammpstrj id type x y z

#intial minimization
minimize		1.0e-5 1.0e-5 10000 10000
WARNING: Using 'neigh_modify every 1 delay 0 check yes' setting during minimization (src/min.cpp:187)
Generated 153 of 153 mixed pair_coeff terms from geometric mixing rule
Neighbor list info ...
  update every 1 steps, delay 0 steps, check yes
  max neighbors/atom: 2000, page size: 100000
  master list distance cutoff = 12
  ghost atom cutoff = 12
  binsize = 6, bins = 6 6 6
  1 neighbor lists, perpetual/occasional/extra = 1 0 0
  (1) pair lj/cut, perpetual
      attributes: half, newton on
      pair build: half/bin/newton
      stencil: half/bin/3d
      bin: standard
WARNING: Inconsistent image flags (src/domain.cpp:819)
Per MPI rank memory allocation (min/avg/max) = 26.67 | 26.67 | 26.67 Mbytes
   Step          Temp          PotEng         Press          Volume           Lx          Density    
         0   0              245142.64     -567829.91      28734.809      30.629232      1.0928246    
       100   0              1326.9912     -12944.63       28734.809      30.629232      1.0928246    
       200   0             -262.09844     -4839.9707      28734.809      30.629232      1.0928246    
       300   0             -561.599       -3343.0545      28734.809      30.629232      1.0928246    
       400   0             -697.19082     -2791.4687      28734.809      30.629232      1.0928246    
       500   0             -767.87677     -2996.6868      28734.809      30.629232      1.0928246    
       600   0             -827.88553     -3081.5489      28734.809      30.629232      1.0928246    
       700   0             -869.92344     -3054.5523      28734.809      30.629232      1.0928246    
       800   0             -893.87556     -3010.2751      28734.809      30.629232      1.0928246    
       900   0             -908.0876      -3102.7953      28734.809      30.629232      1.0928246    
      1000   0             -919.6387      -3181.8854      28734.809      30.629232      1.0928246    
      1100   0             -925.94467     -3375.9496      28734.809      30.629232      1.0928246    
      1200   0             -929.57628     -3262.7126      28734.809      30.629232      1.0928246    
      1300   0             -933.10834     -3268.1213      28734.809      30.629232      1.0928246    
      1400   0             -936.89971     -3449.2195      28734.809      30.629232      1.0928246    
      1500   0             -939.94291     -3300.5059      28734.809      30.629232      1.0928246    
      1600   0             -942.18638     -3409.2198      28734.809      30.629232      1.0928246    
      1651   0             -943.1009      -3419.715       28734.809      30.629232      1.0928246    
Loop time of 96.8226 on 1 procs for 1651 steps with 2988 atoms

99.3% CPU use with 1 MPI tasks x 1 OpenMP threads

Minimization stats:
  Stopping criterion = energy tolerance
  Energy initial, next-to-last, final = 
      245142.638414173    -943.0915089135  -943.100900799559
  Force two-norm initial, final = 28134.695 4.1557683
  Force max component initial, final = 4144.4888 0.71218274
  Final line search alpha, max atom move = 0.019603931 0.013961581
  Iterations, force evaluations = 1651 3211

MPI task timing breakdown:
Section |  min time  |  avg time  |  max time  |%varavg| %total
---------------------------------------------------------------
Pair    | 92.038     | 92.038     | 92.038     |   0.0 | 95.06
Bond    | 1.933      | 1.933      | 1.933      |   0.0 |  2.00
Neigh   | 2.0814     | 2.0814     | 2.0814     |   0.0 |  2.15
Comm    | 0.34253    | 0.34253    | 0.34253    |   0.0 |  0.35
Output  | 0.13692    | 0.13692    | 0.13692    |   0.0 |  0.14
Modify  | 0          | 0          | 0          |   0.0 |  0.00
Other   |            | 0.2906     |            |       |  0.30

Nlocal:           2988 ave        2988 max        2988 min
Histogram: 1 0 0 0 0 0 0 0 0 0
Nghost:          13796 ave       13796 max       13796 min
Histogram: 1 0 0 0 0 0 0 0 0 0
Neighs:    1.11036e+06 ave 1.11036e+06 max 1.11036e+06 min
Histogram: 1 0 0 0 0 0 0 0 0 0

Total # of neighbors = 1110355
Ave neighs/atom = 371.60475
Ave special neighs/atom = 12.156627
Neighbor list builds = 48
Dangerous builds = 0

timestep 1
# nvt for 500 ps
fix			1 all nvt temp 300 300 100
run			500000
Generated 153 of 153 mixed pair_coeff terms from geometric mixing rule
WARNING: Inconsistent image flags (src/domain.cpp:819)
Per MPI rank memory allocation (min/avg/max) = 24.42 | 24.42 | 24.42 Mbytes
   Step          Temp          PotEng         Press          Volume           Lx          Density    
      1651   0             -943.1009      -3419.715       28734.809      30.629232      1.0928246    
      1700   0.043503184   -943.47212     -3433.5521      28734.809      30.629232      1.0928246    
      1800   0.14087467    -944.03747     -3487.7567      28734.809      30.629232      1.0928246    
      1900   0.21385125    -944.04203     -3451.6387      28734.809      30.629232      1.0928246    
      2000   0.28889274    -943.74691     -3451.4131      28734.809      30.629232      1.0928246    
      2100   0.37129465    -943.14754     -3435.1087      28734.809      30.629232      1.0928246    
      2200   0.51340526    -942.527       -3475.6206      28734.809      30.629232      1.0928246    
      2300   0.69885685    -941.47174     -3427.0022      28734.809      30.629232      1.0928246    
      2400   0.94000567    -939.88989     -3380.0194      28734.809      30.629232      1.0928246    
      2500   1.2409178     -937.50965     -3324.9827      28734.809      30.629232      1.0928246    
      2600   1.6342879     -934.09062     -3294.6447      28734.809      30.629232      1.0928246    
      2700   2.2105719     -929.84638     -3436.9302      28734.809      30.629232      1.0928246    
      2800   3.0934446     -924.3893      -3364.6421      28734.809      30.629232      1.0928246    
      2900   3.9706016     -914.18329     -3204.8549      28734.809      30.629232      1.0928246    
      3000   5.8223885     -905.34212     -3288.3646      28734.809      30.629232      1.0928246    
      3100   8.4164326     -891.57106     -3122.6388      28734.809      30.629232      1.0928246    
      3200   11.336452     -865.16868     -2848.2238      28734.809      30.629232      1.0928246    
      3300   16.364507     -836.19514     -2596.8074      28734.809      30.629232      1.0928246    
      3400   23.640139     -794.30756     -1580.8053      28734.809      30.629232      1.0928246    
      3500   32.130563     -719.58823     -1388.3452      28734.809      30.629232      1.0928246    
      3600   47.065997     -641.18627     -76.603556      28734.809      30.629232      1.0928246    
      3700   69.356055     -532.62378     -886.95793      28734.809      30.629232      1.0928246    
      3800   97.484445     -352.81847     -143.44136      28734.809      30.629232      1.0928246    
      3900   131.81985     -97.012281      2001.0425      28734.809      30.629232      1.0928246    
      4000   178.90212      192.68699      1768.369       28734.809      30.629232      1.0928246    
      4100   225.84363      610.84756      1338.8337      28734.809      30.629232      1.0928246    
      4200   285.82697      934.1186       4279.5201      28734.809      30.629232      1.0928246    
      4300   316.47546      1318.3232      2685.1041      28734.809      30.629232      1.0928246    
      4400   320.2461       1523.5025      3552.7874      28734.809      30.629232      1.0928246    
      4500   303.74932      1534.2044      3611.4996      28734.809      30.629232      1.0928246    
      4600   288.27041      1456.9568      2485.5054      28734.809      30.629232      1.0928246    
      4700   285.5762       1450.537       1861.1778      28734.809      30.629232      1.0928246    
      4800   299.26866      1488.8082      3230.8156      28734.809      30.629232      1.0928246    
      4900   307.77266      1583.2285      3814.8803      28734.809      30.629232      1.0928246    
      5000   310.86876      1554.3937      1194.1921      28734.809      30.629232      1.0928246    
      5100   310.80765      1394.9634      1843.8472      28734.809      30.629232      1.0928246    
      5200   290.67856      1347.9542      1540.037       28734.809      30.629232      1.0928246    
      5300   290.18596      1328.032       1631.1508      28734.809      30.629232      1.0928246    
      5400   299.25337      1446.1381      3073.0183      28734.809      30.629232      1.0928246    
      5500   301.13299      1611.464       1298.9732      28734.809      30.629232      1.0928246    
      5600   308.19489      1547.5489      2885.5307      28734.809      30.629232      1.0928246    
      5700   298.81449      1466.5017     -500.59091      28734.809      30.629232      1.0928246    
      5800   287.78118      1436.8138     -1258.4015      28734.809      30.629232      1.0928246    
      5900   300.65449      1354.4351      1048.1016      28734.809      30.629232      1.0928246    
      6000   299.24791      1448.9282      413.18058      28734.809      30.629232      1.0928246    
      6100   300.10369      1542.4407      222.69796      28734.809      30.629232      1.0928246    
      6200   304.80484      1585.5405      1102.0355      28734.809      30.629232      1.0928246    
      6300   303.82515      1567.5334     -653.83019      28734.809      30.629232      1.0928246    
      6400   296.45341      1514.8072      413.54014      28734.809      30.629232      1.0928246    
      6500   290.36876      1488.1481      922.84743      28734.809      30.629232      1.0928246    
      6600   299.01173      1446.4165      1422.8486      28734.809      30.629232      1.0928246    
      6700   301.57615      1539.5128      2280.3302      28734.809      30.629232      1.0928246    
      6800   305.09761      1598.4158      1336.429       28734.809      30.629232      1.0928246    
      6900   309.37328      1521.5133      83.894492      28734.809      30.629232      1.0928246    
      7000   298.01243      1490.7076      1277.8231      28734.809      30.629232      1.0928246    
      7100   290.92181      1457.9324      1372.5548      28734.809      30.629232      1.0928246    
      7200   293.652        1459.891       501.9457       28734.809      30.629232      1.0928246    
      7300   306.48197      1456.4415      1950.3701      28734.809      30.629232      1.0928246    
      7400   309.04885      1513.3292     -422.27421      28734.809      30.629232      1.0928246    
      7500   298.16017      1591.3468      1076.5116      28734.809      30.629232      1.0928246    
      7600   296.58209      1507.4164     -300.95752      28734.809      30.629232      1.0928246    
      7700   292.1575       1482.4807      313.85394      28734.809      30.629232      1.0928246    
      7800   301.60793      1406.9741     -1371.7111      28734.809      30.629232      1.0928246    
      7900   303.78067      1447.8426      79.457011      28734.809      30.629232      1.0928246    
      8000   302.40506      1512.9441     -624.62501      28734.809      30.629232      1.0928246    
      8100   306.87831      1462.9607      715.78273      28734.809      30.629232      1.0928246    
      8200   298.96027      1455.3119     -1475.9321      28734.809      30.629232      1.0928246    
      8300   293.76244      1430.0303     -941.06727      28734.809      30.629232      1.0928246    
      8400   293.3239       1429.7292     -2148.4438      28734.809      30.629232      1.0928246    
      8500   294.44445      1506.6554     -1401.655       28734.809      30.629232      1.0928246    
      8600   300.25773      1569.0143     -1579.0231      28734.809      30.629232      1.0928246    
      8700   307.67705      1499.613       201.23626      28734.809      30.629232      1.0928246    
      8800   298.62373      1460.1641     -480.35283      28734.809      30.629232      1.0928246    
      8900   291.8679       1431.6681     -52.119147      28734.809      30.629232      1.0928246    
      9000   287.38841      1500.4028      1898.491       28734.809      30.629232      1.0928246    
      9100   297.60435      1533.547      -3437.2427      28734.809      30.629232      1.0928246    
      9200   309.00904      1529.0432     -497.98284      28734.809      30.629232      1.0928246    
      9300   303.99167      1519.3281      2229.1861      28734.809      30.629232      1.0928246    
      9400   300.92865      1436.1113     -11.32753       28734.809      30.629232      1.0928246    
      9500   293.01717      1450.427      -85.124558      28734.809      30.629232      1.0928246    
      9600   295.73015      1478.9268     -420.38444      28734.809      30.629232      1.0928246    
      9700   301.32337      1527.9686     -2274.3521      28734.809      30.629232      1.0928246    
      9800   307.79458      1553.2128      1560.9515      28734.809      30.629232      1.0928246    
      9900   304.26535      1565.4121      1978.2239      28734.809      30.629232      1.0928246    
     10000   305.33451      1423.7328     -249.07767      28734.809      30.629232      1.0928246    
     10100   293.65276      1424.4742     -656.23538      28734.809      30.629232      1.0928246    
     10200   295.36093      1459.7074     -2258.6831      28734.809      30.629232      1.0928246    
     10300   308.64338      1469.7593      125.97607      28734.809      30.629232      1.0928246    
     10400   302.02935      1596.8165      730.98843      28734.809      30.629232      1.0928246    
     10500   305.06983      1536.9412      1528.414       28734.809      30.629232      1.0928246    
     10600   301.6347       1472.306       657.88084      28734.809      30.629232      1.0928246    
     10700   292.80579      1461.2551     -811.23019      28734.809      30.629232      1.0928246    
     10800   291.67305      1479.5117     -158.67144      28734.809      30.629232      1.0928246    
     10900   304.8511       1477.0082     -1945.8809      28734.809      30.629232      1.0928246    
     11000   304.10226      1581.7661     -689.99494      28734.809      30.629232      1.0928246    
     11100   305.24291      1554.4918     -699.09259      28734.809      30.629232      1.0928246    
     11200   302.50407      1454.0776     -946.87636      28734.809      30.629232      1.0928246    
     11300   291.3825       1436.9032     -785.56479      28734.809      30.629232      1.0928246    
     11400   288.33289      1452.7067      758.20544      28734.809      30.629232      1.0928246    
     11500   301.65816      1440.4299      1064.1938      28734.809      30.629232      1.0928246    
     11600   309.14549      1484.0618      18.192308      28734.809      30.629232      1.0928246    
     11700   309.90424      1476.5515     -964.0629       28734.809      30.629232      1.0928246    
     11800   303.19089      1407.4193     -233.32271      28734.809      30.629232      1.0928246    
     11900   287.07983      1430.2329     -480.49883      28734.809      30.629232      1.0928246    
     12000   294.71252      1381.0122     -372.38077      28734.809      30.629232      1.0928246    
     12100   304.8448       1429.1853      435.02373      28734.809      30.629232      1.0928246    
     12200   308.46661      1495.361       1205.465       28734.809      30.629232      1.0928246    
     12300   310.64943      1490.3567      1318.8613      28734.809      30.629232      1.0928246    
     12400   300.4968       1496.044       172.0609       28734.809      30.629232      1.0928246    
     12500   302.47941      1366.8177     -784.31827      28734.809      30.629232      1.0928246    
     12600   293.66816      1384.7689     -482.62831      28734.809      30.629232      1.0928246    
     12700   293.62883      1451.054      -1137.1396      28734.809      30.629232      1.0928246    
     12800   305.62527      1484.5023      1355.5126      28734.809      30.629232      1.0928246    
     12900   307.63341      1534.7158     -1695.4317      28734.809      30.629232      1.0928246    
     13000   305.82584      1515.7559     -3154.9877      28734.809      30.629232      1.0928246    
     13100   300.35603      1434.4659     -1169.2292      28734.809      30.629232      1.0928246    
     13200   297.46904      1368.1363     -966.62921      28734.809      30.629232      1.0928246    
     13300   290.76382      1451.8604     -370.42646      28734.809      30.629232      1.0928246    
     13400   304.85042      1439.4679     -1245.5622      28734.809      30.629232      1.0928246    
     13500   307.39954      1492.1211     -166.79303      28734.809      30.629232      1.0928246    
     13600   306.0757       1486.2454     -975.75938      28734.809      30.629232      1.0928246    
     13700   304.37601      1404.9646     -993.43194      28734.809      30.629232      1.0928246    
     13800   292.04071      1428.8203     -2114.9997      28734.809      30.629232      1.0928246    
     13900   292.94542      1449.5129      682.94382      28734.809      30.629232      1.0928246    
     14000   300.80608      1492.6553      1565.6934      28734.809      30.629232      1.0928246    
     14100   308.54264      1517.7529     -522.3065       28734.809      30.629232      1.0928246    
     14200   309.05067      1496.7284     -2182.9941      28734.809      30.629232      1.0928246    
     14300   298.89056      1478.8634     -2848.7802      28734.809      30.629232      1.0928246    
     14400   293.5799       1439.3517     -1721.5857      28734.809      30.629232      1.0928246    
     14500   296.88232      1426.3148     -885.66237      28734.809      30.629232      1.0928246    
     14600   298.36806      1513.4537     -2221.455       28734.809      30.629232      1.0928246    
     14700   300.58545      1598.2068     -1424.9541      28734.809      30.629232      1.0928246    
     14800   306.8955       1536.5051     -1100.8447      28734.809      30.629232      1.0928246    
     14900   294.25538      1539.6805     -1503.3444      28734.809      30.629232      1.0928246    
     15000   302.45466      1362.9005     -552.22963      28734.809      30.629232      1.0928246    
     15100   292.57904      1435.3135      457.34359      28734.809      30.629232      1.0928246    
     15200   297.20502      1478.6868     -485.77892      28734.809      30.629232      1.0928246    
     15300   306.72322      1512.9602     -1808.8986      28734.809      30.629232      1.0928246    
     15400   307.95968      1516.3838     -1480.029       28734.809      30.629232      1.0928246    
     15500   301.98321      1483.1465      1629.8303      28734.809      30.629232      1.0928246    
     15600   297.60527      1426.8764      1581.1552      28734.809      30.629232      1.0928246    
     15700   298.09362      1409.4346      1534.1303      28734.809      30.629232      1.0928246    
     15800   301.90508      1427.6207      78.117001      28734.809      30.629232      1.0928246    
     15900   302.464        1484.4215     -726.64407      28734.809      30.629232      1.0928246    
     16000   306.40404      1478.3514     -1731.6495      28734.809      30.629232      1.0928246    
     16100   299.72201      1524.2378     -3399.0775      28734.809      30.629232      1.0928246    
     16200   305.78608      1428.2741     -1327.0746      28734.809      30.629232      1.0928246    
     16300   295.99873      1476.466      -2039.5854      28734.809      30.629232      1.0928246    
     16400   296.37491      1471.1483     -1126.7226      28734.809      30.629232      1.0928246    
     16500   296.85067      1488.1949      64.347397      28734.809      30.629232      1.0928246    
     16600   300.98453      1480.8589      81.779246      28734.809      30.629232      1.0928246    
     16700   297.81806      1511.4653      824.12112      28734.809      30.629232      1.0928246    
     16800   293.7994       1534.8898     -952.58625      28734.809      30.629232      1.0928246    
     16900   304.61632      1423.156      -1715.8164      28734.809      30.629232      1.0928246    
     17000   299.87657      1448.3242     -2081.1929      28734.809      30.629232      1.0928246    
     17100   299.10289      1459.696      -472.85688      28734.809      30.629232      1.0928246    
     17200   298.86617      1491.87        975.15515      28734.809      30.629232      1.0928246    
     17300   301.84974      1495.3591      202.11862      28734.809      30.629232      1.0928246    
     17400   294.7427       1549.3719      629.411        28734.809      30.629232      1.0928246    
     17500   301.05971      1456.6299     -1775.1353      28734.809      30.629232      1.0928246    
     17600   305.82946      1418.2212     -1003.548       28734.809      30.629232      1.0928246    
     17700   300.8007       1482.3763     -1959.9532      28734.809      30.629232      1.0928246    
     17800   299.16479      1510.2594     -1800.1554      28734.809      30.629232      1.0928246    
     17900   298.22949      1524.1281     -2293.9347      28734.809      30.629232      1.0928246    
     18000   298.59193      1503.4746     -1043.4398      28734.809      30.629232      1.0928246    
     18100   293.74421      1530.281      -2457.6437      28734.809      30.629232      1.0928246    
     18200   303.31078      1419.5901     -1367.0471      28734.809      30.629232      1.0928246    
     18300   299.08474      1443.0768     -2241.2866      28734.809      30.629232      1.0928246    
     18400   295.39083      1492.535      -2430.4369      28734.809      30.629232      1.0928246    
     18500   299.45656      1508.3549     -523.2156       28734.809      30.629232      1.0928246    
     18600   308.80931      1483.3958     -1573.2063      28734.809      30.629232      1.0928246    
     18700   309.93032      1474.4885     -536.50691      28734.809      30.629232      1.0928246    
     18800   299.42064      1480.8641     -952.89646      28734.809      30.629232      1.0928246    
     18900   295.02739      1416.0758     -2257.5202      28734.809      30.629232      1.0928246    
     19000   294.35079      1416.9566     -627.14652      28734.809      30.629232      1.0928246    
     19100   295.51595      1496.938      -1603.9719      28734.809      30.629232      1.0928246    
     19200   311.60413      1450.1558     -1008.6588      28734.809      30.629232      1.0928246    
     19300   308.6882       1489.0468     -222.77929      28734.809      30.629232      1.0928246    
     19400   300.75408      1488.9928     -1026.0353      28734.809      30.629232      1.0928246    
     19500   294.4378       1464.926       424.13388      28734.809      30.629232      1.0928246    
     19600   294.1352       1432.9567     -105.18447      28734.809      30.629232      1.0928246    
     19700   294.92318      1483.5732     -755.07627      28734.809      30.629232      1.0928246    
     19800   304.27692      1490.0651     -1170.8152      28734.809      30.629232      1.0928246    
     19900   307.90814      1476.3357     -619.2361       28734.809      30.629232      1.0928246    
     20000   303.61992      1464.6098     -315.49567      28734.809      30.629232      1.0928246    
     20100   295.1163       1503.7551     -2975.411       28734.809      30.629232      1.0928246    
     20200   295.52202      1522.6894     -803.96035      28734.809      30.629232      1.0928246    
     20300   300.90308      1524.0285     -3430.0862      28734.809      30.629232      1.0928246    
     20400   306.46901      1466.5424     -2541.9457      28734.809      30.629232      1.0928246    
     20500   298.93725      1493.7269     -2761.9676      28734.809      30.629232      1.0928246    
     20600   293.90016      1509.4848     -4112.9274      28734.809      30.629232      1.0928246    
     20700   299.00738      1474.2159     -1254.185       28734.809      30.629232      1.0928246    
     20800   304.0539       1486.9157     -2281.8716      28734.809      30.629232      1.0928246    
     20900   295.60588      1582.6874     -1133.1651      28734.809      30.629232      1.0928246    
     21000   299.73574      1532.1346      50.542854      28734.809      30.629232      1.0928246    
     21100   293.96698      1535.721      -2293.3147      28734.809      30.629232      1.0928246    
     21200   298.42352      1477.0944     -2235.8652      28734.809      30.629232      1.0928246    
     21300   302.3484       1458.9887     -1793.2168      28734.809      30.629232      1.0928246    
     21400   303.50008      1488.2694     -1920.4221      28734.809      30.629232      1.0928246    
     21500   304.28643      1499.6876     -3026.3103      28734.809      30.629232      1.0928246    
     21600   302.22722      1479.98       -1940.8247      28734.809      30.629232      1.0928246    
     21700   296.68088      1492.7691     -1186.2572      28734.809      30.629232      1.0928246    
     21800   298.42178      1481.9533     -2330.7216      28734.809      30.629232      1.0928246    
     21900   301.88298      1460.0275     -3302.2366      28734.809      30.629232      1.0928246    
     22000   298.89404      1491.2011     -2015.4363      28734.809      30.629232      1.0928246    
     22100   302.15042      1472.851      -3167.3344      28734.809      30.629232      1.0928246    
     22200   298.98738      1481.9128     -2841.9705      28734.809      30.629232      1.0928246    
     22300   293.15516      1518.166      -3885.509       28734.809      30.629232      1.0928246    
     22400   299.77385      1473.8238     -1896.3782      28734.809      30.629232      1.0928246    
     22500   301.40431      1482.6294     -70.779147      28734.809      30.629232      1.0928246    
     22600   301.82195      1479.5627     -873.01371      28734.809      30.629232      1.0928246    
     22700   294.23574      1536.4138     -1784.117       28734.809      30.629232      1.0928246    
     22800   298.92328      1472.7148     -1485.4726      28734.809      30.629232      1.0928246    
     22900   300.8077       1425.0856     -377.29071      28734.809      30.629232      1.0928246    
     23000   296.07886      1462.639      -900.54491      28734.809      30.629232      1.0928246    
     23100   301.25017      1475.2821     -969.6463       28734.809      30.629232      1.0928246    
     23200   302.5377       1517.5233     -2348.3965      28734.809      30.629232      1.0928246    
     23300   299.05501      1518.6637     -982.54635      28734.809      30.629232      1.0928246    
     23400   295.62832      1488.7747     -2106.4194      28734.809      30.629232      1.0928246    
     23500   294.48892      1475.8928     -3330.5323      28734.809      30.629232      1.0928246    
     23600   298.77864      1457.5141      825.32276      28734.809      30.629232      1.0928246    
     23700   305.94286      1433.7719     -628.76251      28734.809      30.629232      1.0928246    
     23800   302.30994      1501.5121     -1822.5052      28734.809      30.629232      1.0928246    
     23900   302.49874      1491.9548     -3626.0532      28734.809      30.629232      1.0928246    
     24000   294.36381      1519.9001     -3729.9365      28734.809      30.629232      1.0928246    
     24100   296.74785      1468.3609     -3517.0095      28734.809      30.629232      1.0928246    
     24200   299.12999      1453.1939     -1865.7114      28734.809      30.629232      1.0928246    
     24300   297.36464      1489.4583     -1494.0173      28734.809      30.629232      1.0928246    
     24400   299.00011      1472.4578      314.45271      28734.809      30.629232      1.0928246    
     24500   299.81428      1497.9166     -1406.537       28734.809      30.629232      1.0928246    
     24600   298.11076      1547.91        74.652748      28734.809      30.629232      1.0928246    
     24700   308.15691      1459.2161     -1574.5876      28734.809      30.629232      1.0928246    
     24800   302.20662      1484.7843     -1002.0181      28734.809      30.629232      1.0928246    
     24900   297.2146       1473.1472     -3849.0496      28734.809      30.629232      1.0928246    
     25000   292.13177      1494.8656      128.87633      28734.809      30.629232      1.0928246    
     25100   303.19214      1428.7117     -1267.4284      28734.809      30.629232      1.0928246    
     25200   303.8319       1476.1188     -761.66532      28734.809      30.629232      1.0928246    
     25300   302.00476      1513.6028     -93.552366      28734.809      30.629232      1.0928246    
     25400   300.52048      1494.7125      221.83909      28734.809      30.629232      1.0928246    
     25500   293.94525      1494.6187     -1518.6277      28734.809      30.629232      1.0928246    
     25600   297.38774      1452.1484     -868.07734      28734.809      30.629232      1.0928246    
     25700   299.84098      1475.8663     -880.29089      28734.809      30.629232      1.0928246    
     25800   301.39794      1501.5212     -981.4759       28734.809      30.629232      1.0928246    
     25900   299.73917      1529.5326     -928.31431      28734.809      30.629232      1.0928246    
     26000   296.18234      1554.3503     -2980.5427      28734.809      30.629232      1.0928246    
     26100   298.74961      1510.4891     -1484.9402      28734.809      30.629232      1.0928246    
     26200   298.46999      1488.333      -810.42958      28734.809      30.629232      1.0928246    
     26300   302.30488      1450.891      -841.5811       28734.809      30.629232      1.0928246    
     26400   302.60693      1466.4654      447.17711      28734.809      30.629232      1.0928246    
     26500   304.10636      1462.4316      160.40324      28734.809      30.629232      1.0928246    
     26600   298.41074      1504.0243      286.47582      28734.809      30.629232      1.0928246    
     26700   298.32765      1471.6767      569.76049      28734.809      30.629232      1.0928246    
     26800   302.32753      1416.5625      898.32591      28734.809      30.629232      1.0928246    
     26900   299.02646      1451.5703     -1781.5148      28734.809      30.629232      1.0928246    
     27000   304.1344       1427.9073     -1344.6628      28734.809      30.629232      1.0928246    
     27100   305.23528      1432.2415     -2231.8239      28734.809      30.629232      1.0928246    
     27200   298.51229      1503.5041     -1839.684       28734.809      30.629232      1.0928246    
     27300   301.85304      1496.3696     -1099.7587      28734.809      30.629232      1.0928246    
     27400   302.54323      1520.043      -2416.7067      28734.809      30.629232      1.0928246    
     27500   302.76333      1476.4852     -3815.1901      28734.809      30.629232      1.0928246    
     27600   295.68176      1470.7355     -1602.917       28734.809      30.629232      1.0928246    
     27700   293.51215      1470.8178     -1033.4274      28734.809      30.629232      1.0928246    
     27800   298.59005      1479.8721      23.249364      28734.809      30.629232      1.0928246    
     27900   305.78282      1477.9332     -3276.2096      28734.809      30.629232      1.0928246    
     28000   298.84408      1529.9644     -759.1374       28734.809      30.629232      1.0928246    
     28100   298.53758      1474.324      -3097.5583      28734.809      30.629232      1.0928246    
     28200   294.50351      1459.9569     -1633.355       28734.809      30.629232      1.0928246    
     28300   301.55268      1392.7772     -1362.0041      28734.809      30.629232      1.0928246    
     28400   300.79335      1457.0577     -1927.7974      28734.809      30.629232      1.0928246    
     28500   305.52848      1483.3642     -394.00395      28734.809      30.629232      1.0928246    
     28600   299.4123       1550.2336     -224.94079      28734.809      30.629232      1.0928246    
     28700   308.51403      1410.6359     -203.48102      28734.809      30.629232      1.0928246    
     28800   302.59869      1399.2087      717.77677      28734.809      30.629232      1.0928246    
     28900   300.21113      1401.4209     -858.79269      28734.809      30.629232      1.0928246    
     29000   296.80339      1470.529      -1201.4746      28734.809      30.629232      1.0928246    
     29100   301.83526      1476.3653     -653.86863      28734.809      30.629232      1.0928246    
     29200   308.65649      1435.861       212.97851      28734.809      30.629232      1.0928246    
     29300   305.81479      1433.1738     -2264.3266      28734.809      30.629232      1.0928246    
     29400   300.80977      1431.9283     -2572.3282      28734.809      30.629232      1.0928246    
     29500   296.03823      1466.3919     -948.47778      28734.809      30.629232      1.0928246    
     29600   299.78452      1476.6594      772.15596      28734.809      30.629232      1.0928246    
     29700   305.76402      1455.8321     -1058.2317      28734.809      30.629232      1.0928246    
     29800   303.40994      1435.2896     -1727.6321      28734.809      30.629232      1.0928246    
     29900   302.97935      1379.3221      321.70993      28734.809      30.629232      1.0928246    
     30000   296.72436      1425.4333     -15.062436      28734.809      30.629232      1.0928246    
     30100   295.96396      1457.9887     -2811.6888      28734.809      30.629232      1.0928246    
     30200   301.80642      1457.3339     -2530.1227      28734.809      30.629232      1.0928246    
     30300   300.2253       1504.8526     -1126.9348      28734.809      30.629232      1.0928246    
     30400   302.66822      1465.0288     -1549.8753      28734.809      30.629232      1.0928246    
     30500   303.58508      1410.4249     -2401.0163      28734.809      30.629232      1.0928246    
     30600   291.65687      1495.6595     -1259.7023      28734.809      30.629232      1.0928246    
     30700   302.5811       1439.9573     -994.77006      28734.809      30.629232      1.0928246    
     30800   301.40097      1477.7894     -1789.5441      28734.809      30.629232      1.0928246    
     30900   300.85005      1475.001      -2491.0878      28734.809      30.629232      1.0928246    
     31000   303.67897      1427.4842     -1418.2787      28734.809      30.629232      1.0928246    
     31100   299.56135      1439.0064     -2682.6422      28734.809      30.629232      1.0928246    
     31200   298.9812       1432.1204     -3464.783       28734.809      30.629232      1.0928246    
     31300   303.8818       1398.0173     -2123.9957      28734.809      30.629232      1.0928246    
     31400   299.72639      1457.3136     -1635.3515      28734.809      30.629232      1.0928246    
     31500   302.50656      1449.0904     -150.96931      28734.809      30.629232      1.0928246    
     31600   300.22359      1469.7179     -588.36018      28734.809      30.629232      1.0928246    
     31700   294.48841      1523.2454     -507.80937      28734.809      30.629232      1.0928246    
     31800   304.42782      1437.797      -488.60953      28734.809      30.629232      1.0928246    
     31900   301.52014      1454.5633     -2597.81        28734.809      30.629232      1.0928246    
     32000   300.69073      1433.4733     -1899.0069      28734.809      30.629232      1.0928246    
     32100   297.96343      1439.7725     -2021.3671      28734.809      30.629232      1.0928246    
     32200   300.15162      1425.5892      1486.4021      28734.809      30.629232      1.0928246    
     32300   301.36952      1438.6658     -2319.3081      28734.809      30.629232      1.0928246    
     32400   304.22163      1443.0516     -1062.138       28734.809      30.629232      1.0928246    
     32500   296.10242      1498.7199     -1341.4145      28734.809      30.629232      1.0928246    
     32600   297.59268      1458.4692     -1141.9761      28734.809      30.629232      1.0928246    
     32700   299.10179      1439.7249     -1594.1962      28734.809      30.629232      1.0928246    
     32800   299.12098      1447.9187     -2309.088       28734.809      30.629232      1.0928246    
     32900   299.86838      1443.7329     -1243.8101      28734.809      30.629232      1.0928246    
     33000   297.49849      1482.5685     -1547.7837      28734.809      30.629232      1.0928246    
     33100   302.38759      1463.925      -1009.2383      28734.809      30.629232      1.0928246    
     33200   300.78195      1470.7859     -771.29552      28734.809      30.629232      1.0928246    
     33300   302.1662       1441.5375     -576.25835      28734.809      30.629232      1.0928246    
     33400   291.34666      1509.2208     -1412.7935      28734.809      30.629232      1.0928246    
     33500   295.89093      1451.2606     -1112.9779      28734.809      30.629232      1.0928246    
     33600   302.37177      1425.9189      675.52406      28734.809      30.629232      1.0928246    
     33700   302.48528      1468.4179     -1052.8194      28734.809      30.629232      1.0928246    
     33800   307.18633      1436.9198     -1213.5555      28734.809      30.629232      1.0928246    
     33900   302.30978      1446.1307     -2049.0099      28734.809      30.629232      1.0928246    
     34000   298.15442      1428.291      -1205.1745      28734.809      30.629232      1.0928246    
     34100   297.73108      1404.2518     -70.02097       28734.809      30.629232      1.0928246    
     34200   304.59838      1389.0337     -1579.5292      28734.809      30.629232      1.0928246    
     34300   293.17588      1546.7658     -2403.4196      28734.809      30.629232      1.0928246    
     34400   303.54801      1489.2743     -2973.4348      28734.809      30.629232      1.0928246    
     34500   298.43858      1507.6876     -1975.3819      28734.809      30.629232      1.0928246    
     34600   295.5767       1483.1158     -2277.2691      28734.809      30.629232      1.0928246    
     34700   295.70402      1453.2614     -997.22765      28734.809      30.629232      1.0928246    
     34800   296.28855      1458.114      -251.35284      28734.809      30.629232      1.0928246    
     34900   304.46683      1454.5156     -896.39542      28734.809      30.629232      1.0928246    
     35000   310.22613      1430.0975     -2271.1183      28734.809      30.629232      1.0928246    
     35100   299.98958      1480.3421     -997.99137      28734.809      30.629232      1.0928246    
     35200   291.61432      1461.4843     -796.19946      28734.809      30.629232      1.0928246    
     35300   296.8477       1426.402      -767.08973      28734.809      30.629232      1.0928246    
     35400   295.11773      1494.1203     -1110.3375      28734.809      30.629232      1.0928246    
     35500   304.03845      1443.8089     -2149.1173      28734.809      30.629232      1.0928246    
     35600   308.32369      1396.5314     -43.339487      28734.809      30.629232      1.0928246    
     35700   295.52163      1489.7317     -1489.3103      28734.809      30.629232      1.0928246    
     35800   302.34122      1413.9088     -3914.8483      28734.809      30.629232      1.0928246    
     35900   298.70209      1436.7345     -2355.3691      28734.809      30.629232      1.0928246    
     36000   303.37105      1449.4995     -3063.4584      28734.809      30.629232      1.0928246    
     36100   305.25549      1482.6364     -2563.2566      28734.809      30.629232      1.0928246    
     36200   305.02803      1445.0824     -2261.8075      28734.809      30.629232      1.0928246    
     36300   297.9841       1425.7931     -14.341211      28734.809      30.629232      1.0928246    
     36400   301.39141      1390.5437     -1342.7385      28734.809      30.629232      1.0928246    
     36500   294.19644      1498.3201     -1057.6822      28734.809      30.629232      1.0928246    
     36600   302.86559      1500.1883      313.50778      28734.809      30.629232      1.0928246    
     36700   303.88404      1505.5144     -341.15603      28734.809      30.629232      1.0928246    
     36800   306.87509      1445.0375     -298.08439      28734.809      30.629232      1.0928246    
     36900   303.03093      1438.0708     -1423.7344      28734.809      30.629232      1.0928246    
     37000   295.31309      1458.164      -2653.4304      28734.809      30.629232      1.0928246    
     37100   299.71307      1406.638      -992.26714      28734.809      30.629232      1.0928246    
     37200   297.38804      1474.6336     -351.32273      28734.809      30.629232      1.0928246    
     37300   308.21114      1464.2734     -723.43447      28734.809      30.629232      1.0928246    
     37400   305.03174      1476.4963     -1485.3016      28734.809      30.629232      1.0928246    
     37500   300.06686      1441.0159     -969.26948      28734.809      30.629232      1.0928246    
     37600   301.16768      1425.4944     -486.95977      28734.809      30.629232      1.0928246    
     37700   294.88516      1508.4894     -1789.8247      28734.809      30.629232      1.0928246    
     37800   301.59934      1485.329      -1403.5774      28734.809      30.629232      1.0928246    
     37900   303.71029      1484.933      -1132.8455      28734.809      30.629232      1.0928246    
     38000   308.17636      1412.7887     -2149.5275      28734.809      30.629232      1.0928246    
     38100   295.6582       1443.6626     -587.78855      28734.809      30.629232      1.0928246    
     38200   297.55523      1424.2186     -690.49012      28734.809      30.629232      1.0928246    
     38300   299.47957      1457.3855     -2058.545       28734.809      30.629232      1.0928246    
     38400   303.99651      1498.94       -1188.4913      28734.809      30.629232      1.0928246    
     38500   306.7262       1465.1153     -83.217671      28734.809      30.629232      1.0928246    
     38600   298.44871      1420.6974     -218.6999       28734.809      30.629232      1.0928246    
     38700   295.98218      1427.5373     -572.79974      28734.809      30.629232      1.0928246    
     38800   300.68197      1439.9208     -11.370876      28734.809      30.629232      1.0928246    
     38900   304.27868      1473.1812     -2230.3362      28734.809      30.629232      1.0928246    
     39000   301.13369      1513.6474     -2804.7859      28734.809      30.629232      1.0928246    
     39100   298.95032      1445.5854     -1710.7958      28734.809      30.629232      1.0928246    
     39200   297.74175      1414.2344     -2251.1592      28734.809      30.629232      1.0928246    
     39300   296.77879      1449.023      -2053.1699      28734.809      30.629232      1.0928246    
     39400   301.52966      1464.6102     -2285.95        28734.809      30.629232      1.0928246    
     39500   299.46425      1517.0638     -1035.4303      28734.809      30.629232      1.0928246    
     39600   296.15832      1515.1859     -3059.8231      28734.809      30.629232      1.0928246    
     39700   294.74194      1411.9913     -2876.7458      28734.809      30.629232      1.0928246    
     39800   289.33909      1443.0022     -2976.7666      28734.809      30.629232      1.0928246    
     39900   298.21464      1447.1915     -3542.7834      28734.809      30.629232      1.0928246    
     40000   290.21369      1567.2843     -2144.1467      28734.809      30.629232      1.0928246    
     40100   302.13087      1489.5031     -3203.8566      28734.809      30.629232      1.0928246    
     40200   310.28593      1420.4185     -769.90757      28734.809      30.629232      1.0928246    
     40300   298.07433      1451.6423     -2917.4447      28734.809      30.629232      1.0928246    
     40400   294.32594      1421.6319     -1780.5211      28734.809      30.629232      1.0928246    
     40500   295.26234      1443.2934     -3036.623       28734.809      30.629232      1.0928246    
     40600   300.90225      1460.2551     -965.43019      28734.809      30.629232      1.0928246    
     40700   303.87928      1449.6864     -2734.8749      28734.809      30.629232      1.0928246    
     40800   298.36051      1484.7574     -3685.0293      28734.809      30.629232      1.0928246    
     40900   301.01545      1439.4681     -529.54136      28734.809      30.629232      1.0928246    
     41000   298.52719      1446.4427     -1035.7896      28734.809      30.629232      1.0928246    
     41100   300.78091      1414.7275     -1308.201       28734.809      30.629232      1.0928246    
     41200   303.78901      1409.9684      66.290709      28734.809      30.629232      1.0928246    
     41300   311.40074      1392.3073      938.14058      28734.809      30.629232      1.0928246    
     41400   307.48505      1456.3982     -1654.766       28734.809      30.629232      1.0928246    
     41500   297.26272      1485.6071      376.40655      28734.809      30.629232      1.0928246    
     41600   290.97881      1476.6894     -1188.1541      28734.809      30.629232      1.0928246    
     41700   303.85374      1404.138      -1311.6503      28734.809      30.629232      1.0928246    
     41800   296.86652      1511.2613      370.78713      28734.809      30.629232      1.0928246    
     41900   303.11397      1460.6879     -192.47069      28734.809      30.629232      1.0928246    
     42000   295.23452      1511.9625     -1204.5682      28734.809      30.629232      1.0928246    
     42100   301.25172      1450.7448     -2737.3857      28734.809      30.629232      1.0928246    
     42200   306.9261       1382.6953     -2397.0444      28734.809      30.629232      1.0928246    
     42300   295.47817      1433.8296     -2500.9354      28734.809      30.629232      1.0928246    
     42400   300.09202      1379.3334     -2741.3367      28734.809      30.629232      1.0928246    
     42500   303.19322      1442.3895      323.11436      28734.809      30.629232      1.0928246    
     42600   305.0755       1479.4426     -662.34579      28734.809      30.629232      1.0928246    
     42700   301.34733      1500.5951     -203.76674      28734.809      30.629232      1.0928246    
     42800   297.04675      1475.8192     -2558.625       28734.809      30.629232      1.0928246    
     42900   296.53281      1453.5443     -3978.7062      28734.809      30.629232      1.0928246    
     43000   300.26961      1508.4341     -3031.6003      28734.809      30.629232      1.0928246    
     43100   304.63407      1538.9182     -1555.4396      28734.809      30.629232      1.0928246    
     43200   301.11273      1534.8162     -676.50106      28734.809      30.629232      1.0928246    
     43300   293.02737      1532.7246     -1562.2646      28734.809      30.629232      1.0928246    
     43400   302.48766      1435.9846     -2248.3913      28734.809      30.629232      1.0928246    
     43500   301.01991      1453.9235     -1511.2181      28734.809      30.629232      1.0928246    
     43600   297.3511       1469.3842     -1155.96        28734.809      30.629232      1.0928246    
     43700   294.06149      1469.8466     -3083.5753      28734.809      30.629232      1.0928246    
     43800   294.35228      1470.4124     -2450.1167      28734.809      30.629232      1.0928246    
     43900   302.07106      1449.1059     -1144.2973      28734.809      30.629232      1.0928246    
     44000   301.70238      1505.04       -1446.4087      28734.809      30.629232      1.0928246    
     44100   306.53523      1496.8776     -1856.8095      28734.809      30.629232      1.0928246    
     44200   302.95372      1443.8125     -5.3226953      28734.809      30.629232      1.0928246    
     44300   296.73101      1429.0476     -2526.7811      28734.809      30.629232      1.0928246    
     44400   298.3778       1434.9579     -995.80275      28734.809      30.629232      1.0928246    
     44500   303.36825      1457.988      -2291.6078      28734.809      30.629232      1.0928246    
     44600   299.37973      1528.3041     -2488.7087      28734.809      30.629232      1.0928246    
     44700   299.37017      1524.2395     -339.81917      28734.809      30.629232      1.0928246    
     44800   303.87527      1467.3568     -1190.4179      28734.809      30.629232      1.0928246    
     44900   303.5467       1437.0178     -1701.6716      28734.809      30.629232      1.0928246    
     45000   297.12552      1465.1643     -2899.0712      28734.809      30.629232      1.0928246    
     45100   299.04439      1447.5804     -1402.6979      28734.809      30.629232      1.0928246    
     45200   295.65064      1536.6218     -2931.4003      28734.809      30.629232      1.0928246    
     45300   304.65815      1507.228      -1772.2948      28734.809      30.629232      1.0928246    
     45400   303.70537      1455.2224      211.07563      28734.809      30.629232      1.0928246    
     45500   296.02399      1450.9578     -1500.09        28734.809      30.629232      1.0928246    
     45600   295.01221      1470.778      -252.95519      28734.809      30.629232      1.0928246    
     45700   301.51322      1456.5801     -429.09061      28734.809      30.629232      1.0928246    
     45800   303.99694      1452.1414      957.95191      28734.809      30.629232      1.0928246    
     45900   305.1358       1479.0818     -998.85052      28734.809      30.629232      1.0928246    
     46000   301.74834      1519.5362     -856.42851      28734.809      30.629232      1.0928246    
     46100   301.12158      1456.8359     -3380.2645      28734.809      30.629232      1.0928246    
     46200   297.27277      1438.8246     -558.77833      28734.809      30.629232      1.0928246    
     46300   298.7955       1437.9311     -450.76678      28734.809      30.629232      1.0928246    
     46400   303.74567      1495.7833     -1859.6509      28734.809      30.629232      1.0928246    
     46500   306.11213      1513.0402     -1802.8042      28734.809      30.629232      1.0928246    
     46600   303.88192      1481.3938     -1567.4862      28734.809      30.629232      1.0928246    
     46700   301.62262      1460.945       772.77176      28734.809      30.629232      1.0928246    
     46800   301.17705      1429.9696     -540.97987      28734.809      30.629232      1.0928246    
     46900   296.59126      1446.9302     -663.55566      28734.809      30.629232      1.0928246    
     47000   303.44981      1453.414      -650.25806      28734.809      30.629232      1.0928246    
     47100   304.83898      1519.8971     -21.344693      28734.809      30.629232      1.0928246    
     47200   303.4108       1490.5333     -1490.8223      28734.809      30.629232      1.0928246    
     47300   298.05694      1462.6109     -15.338192      28734.809      30.629232      1.0928246    
     47400   299.67139      1421.1043     -726.31568      28734.809      30.629232      1.0928246    
     47500   300.67723      1418.4773     -1480.0621      28734.809      30.629232      1.0928246    
     47600   298.29158      1489.0496     -1568.7877      28734.809      30.629232      1.0928246    
     47700   310.59541      1488.583      -1327.9487      28734.809      30.629232      1.0928246    
     47800   303.88803      1522.2724     -2197.6739      28734.809      30.629232      1.0928246    
     47900   304.72867      1462.8162     -1496.0553      28734.809      30.629232      1.0928246    
     48000   298.28476      1475.1288     -545.14762      28734.809      30.629232      1.0928246    
     48100   299.09433      1439.5486      381.16993      28734.809      30.629232      1.0928246    
     48200   298.41885      1421.371      -2089.8067      28734.809      30.629232      1.0928246    
     48300   295.98865      1416.2084     -1804.0691      28734.809      30.629232      1.0928246    
     48400   295.72514      1454.5926     -1710.11        28734.809      30.629232      1.0928246    
     48500   299.60959      1496.2064     -2138.6499      28734.809      30.629232      1.0928246    
     48600   299.86705      1526.3291     -2329.2222      28734.809      30.629232      1.0928246    
     48700   298.98676      1505.83       -2810.4068      28734.809      30.629232      1.0928246    
     48800   296.54834      1419.1732     -2863.3342      28734.809      30.629232      1.0928246    
     48900   292.67015      1448.8895     -2712.3463      28734.809      30.629232      1.0928246    
     49000   301.24805      1411.2443     -2418.4359      28734.809      30.629232      1.0928246    
     49100   304.6733       1426.0188     -1853.0844      28734.809      30.629232      1.0928246    
     49200   303.24936      1449.5827     -547.83391      28734.809      30.629232      1.0928246    
     49300   299.17429      1476.8399     -2129.3459      28734.809      30.629232      1.0928246    
     49400   302.76617      1433.3177     -2075.2567      28734.809      30.629232      1.0928246    
     49500   296.43096      1498.3735     -3008.82        28734.809      30.629232      1.0928246    
     49600   301.62921      1504.8663     -3350.0388      28734.809      30.629232      1.0928246    
     49700   307.87594      1537.5481     -2140.3036      28734.809      30.629232      1.0928246    
     49800   305.94831      1525.2387     -1650.599       28734.809      30.629232      1.0928246    
     49900   299.23961      1504.2238     -2995.5227      28734.809      30.629232      1.0928246    
     50000   299.58082      1454.7165     -4874.5151      28734.809      30.629232      1.0928246    
     50100   301.56287      1400.4168     -2520.1762      28734.809      30.629232      1.0928246    
     50200   297.26129      1443.5867     -2041.8923      28734.809      30.629232      1.0928246    
     50300   301.79793      1479.857      -2552.0846      28734.809      30.629232      1.0928246    
     50400   308.37258      1473.2913     -2488.4356      28734.809      30.629232      1.0928246    
     50500   304.69399      1460.414      -1056.6372      28734.809      30.629232      1.0928246    
     50600   302.30303      1442.7697     -1813.3506      28734.809      30.629232      1.0928246    
     50700   303.46072      1425.2904     -1696.1518      28734.809      30.629232      1.0928246    
     50800   297.7054       1459.1689     -1777.3112      28734.809      30.629232      1.0928246    
     50900   299.44233      1399.2168     -1989.3069      28734.809      30.629232      1.0928246    
     51000   292.10037      1415.1761     -989.46153      28734.809      30.629232      1.0928246    
     51100   302.44454      1395.5277     -506.43097      28734.809      30.629232      1.0928246    
     51200   303.31903      1459.1366     -942.337        28734.809      30.629232      1.0928246    
     51300   300.93231      1457.1777      46.32637       28734.809      30.629232      1.0928246    
     51400   295.94681      1447.4434     -421.68557      28734.809      30.629232      1.0928246    
     51500   295.29657      1435.9543     -92.512079      28734.809      30.629232      1.0928246    
     51600   305.24362      1423.1166     -1522.8115      28734.809      30.629232      1.0928246    
     51700   305.3015       1485.2912     -1056.5107      28734.809      30.629232      1.0928246    
     51800   300.80038      1482.3241     -1944.763       28734.809      30.629232      1.0928246    
     51900   295.90589      1466.13       -1275.5523      28734.809      30.629232      1.0928246    
     52000   299.4867       1409.9348     -242.25602      28734.809      30.629232      1.0928246    
     52100   302.84482      1435.7671     -2456.9529      28734.809      30.629232      1.0928246    
     52200   304.90688      1503.629       349.64851      28734.809      30.629232      1.0928246    
     52300   309.53492      1417.6709     -1282.9216      28734.809      30.629232      1.0928246    
     52400   300.37565      1430.0411     -2850.668       28734.809      30.629232      1.0928246    
     52500   300.40086      1415.9513     -894.19006      28734.809      30.629232      1.0928246    
     52600   304.44389      1396.609      -29.836862      28734.809      30.629232      1.0928246    
     52700   302.12743      1494.3819     -253.86888      28734.809      30.629232      1.0928246    
     52800   310.90549      1478.1672      589.04007      28734.809      30.629232      1.0928246    
     52900   302.62308      1497.2061     -1338.2356      28734.809      30.629232      1.0928246    
     53000   303.73821      1408.8814     -740.93725      28734.809      30.629232      1.0928246    
     53100   299.92803      1441.8537     -2580.4151      28734.809      30.629232      1.0928246    
     53200   302.65053      1441.5524     -701.62668      28734.809      30.629232      1.0928246    
     53300   298.3895       1491.488      -831.13545      28734.809      30.629232      1.0928246    
     53400   300.0128       1439.3808     -1820.8027      28734.809      30.629232      1.0928246    
     53500   293.71836      1443.0216     -2682.1812      28734.809      30.629232      1.0928246    
     53600   297.31808      1438.4516     -720.77478      28734.809      30.629232      1.0928246    
     53700   299.03973      1512.8951     -1858.301       28734.809      30.629232      1.0928246    
     53800   300.19091      1520.8041      333.36474      28734.809      30.629232      1.0928246    
     53900   301.44873      1471.8789     -2607.6876      28734.809      30.629232      1.0928246    
     54000   300.81532      1429.178      -3845.0458      28734.809      30.629232      1.0928246    
     54100   301.30288      1398.2254     -2136.094       28734.809      30.629232      1.0928246    
     54200   303.53264      1387.1324     -1721.1167      28734.809      30.629232      1.0928246    
     54300   306.66326      1386.5493     -331.83058      28734.809      30.629232      1.0928246    
     54400   303.59533      1474.9843     -1401.6193      28734.809      30.629232      1.0928246    
     54500   308.76539      1511.5138     -3033.8959      28734.809      30.629232      1.0928246    
     54600   304.24994      1494.5229     -982.24216      28734.809      30.629232      1.0928246    
     54700   299.8268       1458.8059     -1369.4421      28734.809      30.629232      1.0928246    
     54800   300.16627      1427.6559     -1255.0812      28734.809      30.629232      1.0928246    
     54900   301.79721      1400.7829     -543.07437      28734.809      30.629232      1.0928246    
     55000   300.18842      1469.0612     -611.41267      28734.809      30.629232      1.0928246    
     55100   300.93402      1535.3188     -1557.6139      28734.809      30.629232      1.0928246    
     55200   301.94583      1510.4901     -2297.2012      28734.809      30.629232      1.0928246    
     55300   298.64061      1442.927      -3440.2325      28734.809      30.629232      1.0928246    
     55400   293.71017      1474.5655     -2500.4818      28734.809      30.629232      1.0928246    
     55500   299.64693      1458.4761     -2293.1473      28734.809      30.629232      1.0928246    
     55600   298.3636       1512.7754     -2009.344       28734.809      30.629232      1.0928246    
     55700   305.53364      1473.1892     -2200.2881      28734.809      30.629232      1.0928246    
     55800   297.42229      1476.9366     -2256.1514      28734.809      30.629232      1.0928246    
     55900   290.00623      1456.2254     -2534.5209      28734.809      30.629232      1.0928246    
     56000   297.70865      1406.6196     -1919.7146      28734.809      30.629232      1.0928246    
     56100   303.22192      1430.8697     -4595.9748      28734.809      30.629232      1.0928246    
     56200   306.9829       1420.3401     -2996.5379      28734.809      30.629232      1.0928246    
     56300   300.31973      1471.6654     -2287.2339      28734.809      30.629232      1.0928246    
     56400   299.8431       1460.9756     -4592.3099      28734.809      30.629232      1.0928246    
     56500   297.09404      1427.1668     -1529.9521      28734.809      30.629232      1.0928246    
     56600   295.10272      1389.8896     -672.30048      28734.809      30.629232      1.0928246    
     56700   300.43695      1391.1004     -584.92694      28734.809      30.629232      1.0928246    
     56800   297.68131      1495.3447     -2473.932       28734.809      30.629232      1.0928246    
     56900   300.23069      1489.0733     -1507.1086      28734.809      30.629232      1.0928246    
     57000   301.92221      1454.1962     -3314.1317      28734.809      30.629232      1.0928246    
     57100   296.07783      1430.8621     -2819.4594      28734.809      30.629232      1.0928246    
     57200   293.7721       1364.5955     -1551.0616      28734.809      30.629232      1.0928246    
     57300   295.38596      1397.6322     -658.23217      28734.809      30.629232      1.0928246    
     57400   298.99076      1434.5684     -469.3398       28734.809      30.629232      1.0928246    
     57500   300.32857      1465.2986     -1989.7866      28734.809      30.629232      1.0928246    
     57600   305.94413      1431.7172     -174.01158      28734.809      30.629232      1.0928246    
     57700   296.17079      1447.1469     -1670.8511      28734.809      30.629232      1.0928246    
     57800   294.3768       1388.1639     -823.99671      28734.809      30.629232      1.0928246    
     57900   293.06919      1424.3671     -1291.7414      28734.809      30.629232      1.0928246    
     58000   295.21713      1479.8863     -2353.0819      28734.809      30.629232      1.0928246    
     58100   305.30664      1424.5785     -3376.4294      28734.809      30.629232      1.0928246    
     58200   304.74268      1425.1006     -4247.3501      28734.809      30.629232      1.0928246    
     58300   301.65681      1436.6264     -2472.9822      28734.809      30.629232      1.0928246    
     58400   298.58209      1419.1275     -1633.2447      28734.809      30.629232      1.0928246    
     58500   296.3305       1385.3664     -400.51579      28734.809      30.629232      1.0928246    
     58600   296.60966      1402.7509      91.431081      28734.809      30.629232      1.0928246    
     58700   302.04319      1452.739      -495.54873      28734.809      30.629232      1.0928246    
     58800   302.22193      1458.1872      163.52103      28734.809      30.629232      1.0928246    
     58900   303.10633      1421.1111     -1105.8528      28734.809      30.629232      1.0928246    
     59000   296.35453      1419.9802     -916.01203      28734.809      30.629232      1.0928246    
     59100   294.95636      1426.7048     -52.450283      28734.809      30.629232      1.0928246    
     59200   302.86008      1461.3939     -610.13811      28734.809      30.629232      1.0928246    
     59300   300.13052      1541.4113     -2755.2722      28734.809      30.629232      1.0928246    
     59400   300.83776      1517.4038     -1645.171       28734.809      30.629232      1.0928246    
     59500   301.60983      1434.8339     -1152.6016      28734.809      30.629232      1.0928246    
     59600   294.46039      1457.1341     -4910.1507      28734.809      30.629232      1.0928246    
     59700   298.77702      1449.816      -2679.9959      28734.809      30.629232      1.0928246    
     59800   298.9474       1496.4836     -3031.6956      28734.809      30.629232      1.0928246    
     59900   299.94775      1508.7367     -3217.2926      28734.809      30.629232      1.0928246    
     60000   307.82663      1486.4115     -3012.9665      28734.809      30.629232      1.0928246    
     60100   307.0391       1452.9494     -2867.7884      28734.809      30.629232      1.0928246    
     60200   303.78047      1398.7184     -2134.6827      28734.809      30.629232      1.0928246    
     60300   300.07272      1407.8488     -1022.6195      28734.809      30.629232      1.0928246    
     60400   298.7919       1446.1719     -364.32184      28734.809      30.629232      1.0928246    
     60500   302.27028      1494.2447     -1232.7431      28734.809      30.629232      1.0928246    
     60600   304.80651      1501.7151     -2070.4846      28734.809      30.629232      1.0928246    
     60700   299.07586      1448.6416     -2861.9455      28734.809      30.629232      1.0928246    
     60800   295.91954      1427.4272     -901.96892      28734.809      30.629232      1.0928246    
     60900   299.11968      1441.0395     -891.08031      28734.809      30.629232      1.0928246    
     61000   300.50071      1486.9851     -2441.56        28734.809      30.629232      1.0928246    
     61100   300.33131      1489.3241     -1620.6344      28734.809      30.629232      1.0928246    
     61200   298.90677      1430.7095     -3533.6123      28734.809      30.629232      1.0928246    
     61300   295.05999      1380.7054     -4324.6363      28734.809      30.629232      1.0928246    
     61400   298.37144      1376.7981     -2203.4479      28734.809      30.629232      1.0928246    
     61500   302.19079      1407.6686     -2929.2019      28734.809      30.629232      1.0928246    
     61600   303.21867      1426.8108     -2925.4489      28734.809      30.629232      1.0928246    
     61700   297.94106      1500.4556     -1760.3759      28734.809      30.629232      1.0928246    
     61800   301.20879      1460.1284     -2610.4289      28734.809      30.629232      1.0928246    
     61900   300.05513      1390.2397     -3385.2706      28734.809      30.629232      1.0928246    
     62000   296.11265      1384.8887     -176.47491      28734.809      30.629232      1.0928246    
     62100   296.80284      1457.3435     -26.981773      28734.809      30.629232      1.0928246    
     62200   297.11019      1505.5731     -292.27599      28734.809      30.629232      1.0928246    
     62300   299.82164      1482.2871     -3284.6749      28734.809      30.629232      1.0928246    
     62400   301.77187      1433.5625     -1057.6436      28734.809      30.629232      1.0928246    
     62500   293.54335      1424.128      -2198.0871      28734.809      30.629232      1.0928246    
     62600   295.08889      1376.9788     -2110.8387      28734.809      30.629232      1.0928246    
     62700   301.05742      1447.2618     -851.25184      28734.809      30.629232      1.0928246    
     62800   304.45948      1443.6745     -2137.3123      28734.809      30.629232      1.0928246    
     62900   304.87412      1418.3179     -1839.1699      28734.809      30.629232      1.0928246    
     63000   298.95739      1429.6556     -2275.0298      28734.809      30.629232      1.0928246    
     63100   294.67044      1434.0868     -3067.9224      28734.809      30.629232      1.0928246    
     63200   295.08469      1461.3504     -1224.5906      28734.809      30.629232      1.0928246    
     63300   305.80605      1468.3616     -2872.9252      28734.809      30.629232      1.0928246    
     63400   301.3027       1514.0415     -2267.6513      28734.809      30.629232      1.0928246    
     63500   297.04614      1515.743      -1962.0871      28734.809      30.629232      1.0928246    
     63600   285.98437      1525.3824     -2534.5614      28734.809      30.629232      1.0928246    
     63700   293.3442       1449.2865     -7.1906225      28734.809      30.629232      1.0928246    
     63800   293.06715      1480.2858      17.355268      28734.809      30.629232      1.0928246    
     63900   292.59994      1512.2765     -2648.6376      28734.809      30.629232      1.0928246    
     64000   300.2062       1467.3743     -2861.9814      28734.809      30.629232      1.0928246    
     64100   305.77397      1445.8084     -2664.8455      28734.809      30.629232      1.0928246    
     64200   308.88684      1479.8437     -1534.6572      28734.809      30.629232      1.0928246    
     64300   310.83571      1455.6241     -906.51621      28734.809      30.629232      1.0928246    
     64400   297.98991      1470.7827     -2404.375       28734.809      30.629232      1.0928246    
     64500   297.23185      1437.572      -2129.6801      28734.809      30.629232      1.0928246    
     64600   301.94366      1407.2644     -675.70297      28734.809      30.629232      1.0928246    
     64700   302.88254      1467.6295     -1700.3719      28734.809      30.629232      1.0928246    
     64800   309.49898      1472.3832     -2068.5632      28734.809      30.629232      1.0928246    
     64900   307.48387      1452.9468     -2970.9453      28734.809      30.629232      1.0928246    
     65000   292.22315      1474.6434     -1397.9714      28734.809      30.629232      1.0928246    
     65100   299.66805      1391.7308     -3031.0772      28734.809      30.629232      1.0928246    
     65200   303.61188      1405.7707     -1006.5482      28734.809      30.629232      1.0928246    
     65300   303.491        1469.2136      127.56752      28734.809      30.629232      1.0928246    
     65400   304.61873      1479.9151     -1400.1517      28734.809      30.629232      1.0928246    
     65500   295.57583      1501.6553     -2221.1953      28734.809      30.629232      1.0928246    
     65600   296.0898       1417.358      -2526.8587      28734.809      30.629232      1.0928246    
     65700   295.82016      1441.9951      1150.23        28734.809      30.629232      1.0928246    
     65800   306.63932      1428.0931     -1666.5393      28734.809      30.629232      1.0928246    
     65900   300.24341      1507.2624     -2673.0414      28734.809      30.629232      1.0928246    
     66000   298.00697      1516.5073     -2098.9681      28734.809      30.629232      1.0928246    
     66100   301.58098      1465.2086     -1597.6706      28734.809      30.629232      1.0928246    
     66200   294.96468      1448.4787     -2738.9737      28734.809      30.629232      1.0928246    
     66300   295.00556      1379.8699     -2053.6719      28734.809      30.629232      1.0928246    
     66400   294.5556       1445.9123     -1697.4494      28734.809      30.629232      1.0928246    
     66500   295.85825      1485.446      -779.31811      28734.809      30.629232      1.0928246    
     66600   303.87105      1431.6977     -899.59584      28734.809      30.629232      1.0928246    
     66700   301.37115      1439.9248     -2189.2469      28734.809      30.629232      1.0928246    
     66800   299.68127      1417.4361     -2477.8734      28734.809      30.629232      1.0928246    
     66900   295.80733      1390.2759     -1288.7802      28734.809      30.629232      1.0928246    
     67000   296.3629       1385.6706     -2192.5831      28734.809      30.629232      1.0928246    
     67100   298.30062      1471.4489     -3263.0372      28734.809      30.629232      1.0928246    
     67200   303.02531      1463.3395     -1152.4899      28734.809      30.629232      1.0928246    
     67300   297.28775      1503.7536     -1166.282       28734.809      30.629232      1.0928246    
     67400   298.92302      1446.1263      559.84158      28734.809      30.629232      1.0928246    
     67500   294.05623      1413.6295     -1832.7105      28734.809      30.629232      1.0928246    
     67600   289.11933      1442.5529     -209.12276      28734.809      30.629232      1.0928246    
     67700   298.59062      1471.2125     -2541.8411      28734.809      30.629232      1.0928246    
     67800   301.22327      1469.2036     -3031.65        28734.809      30.629232      1.0928246    
     67900   298.60238      1466.2557     -2326.829       28734.809      30.629232      1.0928246    
     68000   297.02175      1414.4806     -1152.801       28734.809      30.629232      1.0928246    
     68100   290.83106      1446.9906      903.75865      28734.809      30.629232      1.0928246    
     68200   296.88691      1513.7587     -1768.9413      28734.809      30.629232      1.0928246    
     68300   308.2007       1450.6803     -2153.1523      28734.809      30.629232      1.0928246    
     68400   296.0594       1505.7839     -2019.0234      28734.809      30.629232      1.0928246    
     68500   292.07274      1496.4231     -1994.0899      28734.809      30.629232      1.0928246    
     68600   298.06643      1456.664      -1971.5299      28734.809      30.629232      1.0928246    
     68700   311.81663      1414.1019     -2630.5932      28734.809      30.629232      1.0928246    
     68800   308.73712      1486.4959     -1586.209       28734.809      30.629232      1.0928246    
     68900   303.90555      1449.6337     -1642.9244      28734.809      30.629232      1.0928246    
     69000   300.53775      1432.083      -2865.5754      28734.809      30.629232      1.0928246    
     69100   300.52761      1440.6965     -1631.8267      28734.809      30.629232      1.0928246    
     69200   301.67986      1466.3784     -236.10837      28734.809      30.629232      1.0928246    
     69300   308.62401      1457.1127     -1798.1106      28734.809      30.629232      1.0928246    
     69400   308.61492      1436.3241     -2689.2827      28734.809      30.629232      1.0928246    
     69500   295.83237      1442.5916     -1337.8875      28734.809      30.629232      1.0928246    
     69600   295.06317      1439.1235     -2211.5288      28734.809      30.629232      1.0928246    
     69700   301.00923      1434.7915     -845.90892      28734.809      30.629232      1.0928246    
     69800   301.0682       1471.7677      38.810838      28734.809      30.629232      1.0928246    
     69900   303.74358      1466.2021      213.60767      28734.809      30.629232      1.0928246    
     70000   298.39443      1490.6502      436.46433      28734.809      30.629232      1.0928246    
     70100   297.71091      1435.2062     -824.72656      28734.809      30.629232      1.0928246    
     70200   302.75883      1343.2433      1142.6191      28734.809      30.629232      1.0928246    
     70300   292.61104      1404.5033     -801.8468       28734.809      30.629232      1.0928246    
     70400   294.99493      1460.9383     -1980.1163      28734.809      30.629232      1.0928246    
     70500   303.64007      1458.8982     -507.26925      28734.809      30.629232      1.0928246    
     70600   301.15827      1474.5661     -1635.5106      28734.809      30.629232      1.0928246    
     70700   297.52281      1442.8942     -520.69229      28734.809      30.629232      1.0928246    
     70800   295.85034      1408.0586     -2178.1133      28734.809      30.629232      1.0928246    
     70900   297.10862      1391.8023     -2685.953       28734.809      30.629232      1.0928246    
     71000   303.81399      1428.9505     -3418.0762      28734.809      30.629232      1.0928246    
     71100   305.29667      1459.7696     -677.95907      28734.809      30.629232      1.0928246    
     71200   302.52998      1451.4036     -2534.0895      28734.809      30.629232      1.0928246    
     71300   300.76668      1395.5256     -2824.9957      28734.809      30.629232      1.0928246    
     71400   300.65182      1368.5107     -1880.5123      28734.809      30.629232      1.0928246    
     71500   298.81073      1428.5459      992.97248      28734.809      30.629232      1.0928246    
     71600   303.71537      1500.3115      356.30598      28734.809      30.629232      1.0928246    
     71700   300.42603      1561.3789     -312.46525      28734.809      30.629232      1.0928246    
     71800   297.96551      1528.7216     -2089.1834      28734.809      30.629232      1.0928246    
     71900   306.31916      1400.0975     -1828.694       28734.809      30.629232      1.0928246    
     72000   295.26943      1443.6019     -1241.7773      28734.809      30.629232      1.0928246    
     72100   293.20446      1439.3736     -776.1815       28734.809      30.629232      1.0928246    
     72200   303.89266      1417.4131     -2838.8062      28734.809      30.629232      1.0928246    
     72300   300.60313      1521.5227     -1896.8302      28734.809      30.629232      1.0928246    
     72400   305.54838      1440.2699     -2568.6262      28734.809      30.629232      1.0928246    
     72500   299.20468      1445.3043     -1339.2363      28734.809      30.629232      1.0928246    
     72600   297.75401      1471.9556     -4100.6488      28734.809      30.629232      1.0928246    
     72700   296.33097      1564.244      -1073.2026      28734.809      30.629232      1.0928246    
     72800   310.9799       1511.2958     -2000.4924      28734.809      30.629232      1.0928246    
     72900   303.68127      1501.836      -789.34304      28734.809      30.629232      1.0928246    
     73000   302.23798      1449.4835     -1492.2996      28734.809      30.629232      1.0928246    
     73100   299.74724      1437.7111     -1618.1964      28734.809      30.629232      1.0928246    
     73200   299.55765      1428.5441     -423.87683      28734.809      30.629232      1.0928246    
     73300   305.54889      1441.711      -1513.3228      28734.809      30.629232      1.0928246    
     73400   310.55481      1468.6314     -303.40556      28734.809      30.629232      1.0928246    
     73500   303.7727       1486.2916     -820.27998      28734.809      30.629232      1.0928246    
     73600   299.56703      1458.7592     -1575.2488      28734.809      30.629232      1.0928246    
     73700   301.0523       1438.1331     -785.01767      28734.809      30.629232      1.0928246    
     73800   295.22911      1493.9738     -1954.2571      28734.809      30.629232      1.0928246    
     73900   304.46695      1426.2183     -1268.5217      28734.809      30.629232      1.0928246    
     74000   306.50682      1441.2142      77.030098      28734.809      30.629232      1.0928246    
     74100   304.69732      1487.5061     -2178.3076      28734.809      30.629232      1.0928246    
[...]
    733600   311.26631      1238.8         705.63534      26044.293      29.641774      1.2057193    
    733700   301.84966      1288.2891     -182.92127      26136.747      29.676807      1.2014543    
    733800   298.37219      1284.0034     -1072.9398      26139.032      29.677672      1.2013493    
    733900   298.63974      1273.0961     -1627.9012      26075.943      29.653776      1.2042559    
    734000   298.40003      1272.7669      1112.627       26033.269      29.637591      1.2062299    
    734100   297.62293      1310.9734     -270.21128      25818.566      29.55589       1.2162607    
    734200   306.81363      1337.1074      1637.704       25839.577      29.563905      1.2152717    
    734300   307.72207      1315.9466      477.70935      26119.539      29.670293      1.2022458    
    734400   300.45798      1287.0974     -511.33878      26137.07       29.67693       1.2014395    
    734500   299.59206      1263.3763     -947.62543      26103.564      29.664243      1.2029816    
    734600   301.38558      1248.2989      1480.6816      25990.194      29.621236      1.208229     
    734700   299.44991      1265.1434      304.20887      25762.569      29.534507      1.2189044    
    734800   298.01046      1285.9949     -314.80138      26044.852      29.641986      1.2056935    
    734900   305.83229      1250.534      -377.06184      26097.73       29.662033      1.2032505    
    735000   301.28914      1297.2943     -154.81202      26132.86       29.675336      1.201633     
    735100   299.29928      1280.3724      1194.998       26203.558      29.702073      1.198391     
    735200   297.53131      1243.0365      723.95894      26066.872      29.650337      1.2046749    
    735300   292.72755      1248.9097     -1603.9136      26157.665      29.684722      1.2004935    
    735400   293.18904      1274.6069      36.356447      26002.266      29.625821      1.2076681    
    735500   301.27356      1312.1409     -1250.0975      26144.114      29.679595      1.2011158    
    735600   302.41504      1313.8588      608.18579      26113.335      29.667944      1.2025315    
    735700   301.17652      1280.0466     -1433.016       25899.722      29.586825      1.2124496    
    735800   298.92925      1229.1842     -1118.2193      26279.22       29.730633      1.1949406    
    735900   293.45933      1266.6795      365.37603      26212.444      29.70543       1.1979847    
    736000   301.09191      1289.6791     -1173.2608      26065.107      29.649668      1.2047565    
    736100   303.45351      1325.4579      852.8473       26356.929      29.759909      1.1914175    
    736200   305.27538      1273.6366      555.0582       26290.086      29.73473       1.1944467    
    736300   302.80719      1257.155      -252.82738      26218.098      29.707565      1.1977264    
    736400   296.88197      1284.4389      128.8024       26141.389      29.678564      1.201241     
    736500   297.6172       1314.1588      238.45742      26110.33       29.666806      1.2026699    
    736600   306.14304      1311.8346      305.25471      26248.841      29.719173      1.1963236    
    736700   304.14755      1330.343      -935.78203      26320.342      29.746132      1.1930737    
    736800   299.66689      1261.9508     -721.49211      26275.863      29.729367      1.1950933    
    736900   295.57761      1252.0307     -298.99158      25975.986      29.615837      1.2088899    
    737000   298.19107      1254.3188      581.36567      26024.141      29.634127      1.206653     
    737100   302.62392      1270.4874      1662.5916      26024.702      29.63434       1.206627     
    737200   301.3457       1327.8931      460.0186       26089.81       29.659032      1.2036158    
    737300   306.19664      1255.9726      682.93909      26352.591      29.758276      1.1916137    
    737400   296.67114      1249.0248     -9.3869125      26277.882      29.730129      1.1950015    
    737500   297.01421      1236.0468      208.88391      26224.78       29.710089      1.1974212    
    737600   298.56017      1294.9711      1024.2818      26137.441      29.67707       1.2014224    
    737700   300.37297      1331.7135     -2152.2623      26370.437      29.764992      1.1908073    
    737800   302.98586      1304.7421      1406.0008      26260.722      29.723656      1.1957823    
    737900   301.45753      1284.1766      2226.7998      26158.647      29.685094      1.2004484    
    738000   299.73236      1259.4051     -1622.5674      26079.585      29.655157      1.2040877    
    738100   291.11787      1199.576      -469.01586      25965.857      29.611987      1.2093615    
    738200   293.11901      1177.3729      3169.5377      25911.417      29.591278      1.2119024    
    738300   298.75584      1229.2279     -1212.736       26133.512      29.675583      1.2016031    
    738400   298.9701       1294.6824     -687.80996      26241.18       29.716281      1.1966728    
    738500   302.49214      1295.9013      1072.3963      26385.367      29.770609      1.1901334    
    738600   296.2184       1352.6668     -2613.5989      26416.349      29.782257      1.1887376    
    738700   296.07837      1316.3585      65.456913      26289.732      29.734597      1.1944628    
    738800   296.42235      1258.5347     -22.653535      26287.957      29.733928      1.1945435    
    738900   290.67593      1281.3244     -927.09613      26422.343      29.784509      1.1884679    
    739000   299.13932      1284.7044     -1139.2721      26229.956      29.712043      1.1971849    
    739100   307.60729      1276.9276      887.75145      26228.68       29.711562      1.1972431    
    739200   303.58249      1293.3928     -1217.3075      26111.245      29.667152      1.2026277    
    739300   302.11821      1245.8948     -351.40049      25962.611      29.610753      1.2095127    
    739400   296.23482      1255.0462     -1462.2953      26151.192      29.682274      1.2007906    
    739500   297.88919      1243.8152      277.47263      26218.292      29.707639      1.1977175    
    739600   297.91823      1260.6888     -1079.8352      26161.103      29.686023      1.2003357    
    739700   304.12989      1237.7716      598.31039      26016.16       29.631097      1.2070231    
    739800   304.25432      1263.7702      885.51442      26155.568      29.683929      1.2005898    
    739900   306.64014      1221.3489      2157.4624      26277.693      29.730057      1.19501      
    740000   296.21743      1232.6966      823.79847      26395.471      29.774408      1.1896779    
    740100   291.21274      1273.76        943.45037      26084.411      29.656986      1.2038649    
    740200   308.83501      1205.0165     -265.54701      26076.544      29.654004      1.2042281    
    740300   301.02387      1303.9375      1361.7883      26070.028      29.651534      1.2045291    
    740400   297.58617      1324.8088     -1702.4044      26213.12       29.705685      1.1979538    
    740500   304.97417      1242.9875      2305.5622      25849.205      29.567576      1.2148191    
    740600   296.83811      1211.4366     -557.50556      26068.474      29.650945      1.2046009    
    740700   294.67884      1212.4664     -723.48707      26120.798      29.67077       1.2021879    
    740800   297.02926      1250.9609     -787.0509       26170.956      29.689749      1.1998838    
    740900   297.98655      1283.2368     -269.93322      26171.4        29.689917      1.1998635    
    741000   297.38963      1292.4761     -2734.0498      26173.188      29.690593      1.1997815    
    741100   301.38744      1258.6223     -256.87254      26127.222      29.673202      1.2018923    
    741200   302.45897      1237.897       559.52633      25847.494      29.566924      1.2148995    
    741300   300.64996      1223.957       670.33493      25826.173      29.558792      1.2159025    
    741400   294.18453      1245.2127      717.85502      26016.575      29.631255      1.2070039    
    741500   294.56148      1238.9952      165.80459      25947.829      29.605132      1.2102017    
    741600   305.86408      1225.026      -979.7921       26122.637      29.671466      1.2021033    
    741700   303.59668      1295.8389     -789.7693       26106.946      29.665524      1.2028258    
    741800   306.32405      1248.8446      1594.3992      26004.52       29.626677      1.2075634    
    741900   297.56586      1275.2133     -948.32631      25969.511      29.613376      1.2091913    
    742000   293.47578      1260.4921     -75.999642      26137.637      29.677144      1.2014134    
    742100   291.1952       1192.4822      878.39112      26142.804      29.6791        1.201176     
    742200   290.44095      1247.5942     -408.0122       26036.729      29.638904      1.2060696    
    742300   299.40499      1257.8374     -378.03549      25974.006      29.615085      1.2089821    
    742400   298.94577      1295.7721      339.67022      25983.814      29.618812      1.2085257    
    742500   303.81724      1254.4924      322.33579      25961.158      29.610201      1.2095804    
    742600   298.57687      1252.3659      1366.7842      26052.182      29.644767      1.2053542    
    742700   294.43627      1211.8615      339.84978      26347.186      29.756242      1.1918581    
    742800   292.57469      1248.0725      1171.6692      26236.869      29.714654      1.1968694    
    742900   304.23676      1242.7403      26.651933      26005.284      29.626967      1.2075279    
    743000   308.07536      1222.6993      3.1146556      26029.147      29.636027      1.2064209    
    743100   301.64306      1279.5753     -701.08009      26178.973      29.692781      1.1995164    
    743200   297.56656      1293.7907     -859.0963       26186.104      29.695476      1.1991897    
    743300   291.90069      1284.9182     -1838.9438      26179.946      29.693148      1.1994718    
    743400   295.50624      1213.2451      1020.5977      26036.255      29.638724      1.2060916    
    743500   299.11011      1256.098      -135.44028      26249.289      29.719341      1.1963032    
    743600   304.24436      1281.6361     -261.91136      26261.861      29.724085      1.1957305    
    743700   305.47951      1278.6248     -1656.9427      26342.269      29.754391      1.1920806    
    743800   297.89346      1300.4627      1714.4612      26065.522      29.649826      1.2047373    
    743900   294.16257      1252.67       -627.5899       26050.955      29.644301      1.205411     
    744000   294.8852       1189.028      -1451.7765      25992.746      29.622205      1.2081104    
    744100   296.30066      1256.4183     -1239.0944      25981.456      29.617916      1.2086354    
    744200   304.9119       1246.4348      810.47761      25834.874      29.562112      1.2154929    
    744300   297.13354      1296.8547      515.53621      26003.519      29.626297      1.2076099    
    744400   302.85003      1197.1097      295.55111      26246.11       29.718142      1.1964481    
    744500   297.1661       1212.0634      494.83489      26164.328      29.687243      1.2001878    
    744600   300.47152      1215.4901      1242.9919      26005.039      29.626874      1.2075393    
    744700   304.0133       1278.6661      1466.9477      26137.24       29.676994      1.2014317    
    744800   305.31004      1261.3454     -54.96916       26230.174      29.712126      1.197175     
    744900   299.37564      1255.0634      1161.5948      26191.631      29.697565      1.1989367    
    745000   297.39197      1260.4169      354.64754      26231.48       29.712619      1.1971153    
    745100   298.92204      1268.2965      958.9208       26122.689      29.671486      1.2021009    
    745200   301.94747      1268.0521     -1809.5638      26185.411      29.695214      1.1992215    
    745300   300.26693      1285.3539      449.02066      26245.097      29.717759      1.1964942    
    745400   299.17332      1272.8348     -1111.3227      26193.264      29.698182      1.198862     
    745500   304.66909      1219.4271      3751.7007      26085.965      29.657575      1.2037932    
    745600   297.26481      1317.0942     -379.68262      26237.758      29.714989      1.1968289    
    745700   304.27153      1308.085       998.09396      26146.498      29.680498      1.2010062    
    745800   303.75664      1290.8883      777.26694      26098.181      29.662204      1.2032297    
    745900   294.34795      1282.4902      24.933521      26182.744      29.694206      1.1993437    
    746000   296.38453      1241.0742     -698.12166      26107.07       29.665571      1.20282      
    746100   299.41206      1255.9822     -1672.9661      26325.125      29.747934      1.1928569    
    746200   299.93413      1314.4005      1247.776       25990.393      29.621311      1.2082198    
    746300   305.74155      1255.008      -122.21727      25946.887      29.604774      1.2102456    
    746400   298.35101      1290.3804      1118.8128      25879.012      29.578937      1.2134199    
    746500   296.72191      1281.0406     -1195.5447      26173.864      29.690849      1.1997505    
    746600   298.69585      1241.048       621.64265      26128.098      29.673534      1.201852     
    746700   293.91386      1261.9565     -4.3941637      26239.641      29.7157        1.196743     
    746800   296.49949      1277.4202     -237.44408      26041.297      29.640637      1.205858     
    746900   303.45481      1280.9022      1897.38        26142.596      29.679021      1.2011855    
    747000   305.67986      1292.2553      247.38781      26266.663      29.725897      1.1955118    
    747100   299.23437      1317.8984      365.75435      26248.053      29.718875      1.1963595    
    747200   295.30837      1246.0043      734.30928      26164.373      29.68726       1.2001857    
    747300   297.86407      1223.6206     -1174.8306      26444.033      29.792657      1.1874931    
    747400   302.16752      1252.6095     -137.86631      26399.934      29.776086      1.1894767    
    747500   300.73003      1304.339      -525.55711      26190.233      29.697037      1.1990007    
    747600   297.17786      1335.5199     -502.01479      26276.814      29.729726      1.19505      
    747700   304.55211      1252.3742      428.58263      26138.869      29.67761       1.2013568    
    747800   298.11578      1276.7525     -910.89741      26099.084      29.662546      1.2031881    
    747900   290.56548      1281.2307      432.44212      26229.71       29.711951      1.1971961    
    748000   283.06048      1216.8056     -566.49867      26230.245      29.712152      1.1971717    
    748100   291.34402      1199.948      -1508.0342      26296.878      29.73729       1.1941382    
    748200   297.84476      1235.7248     -985.78254      26270.242      29.727247      1.195349     
    748300   302.54713      1250.2414     -1286.4431      26591.225      29.847831      1.1809199    
    748400   298.7406       1321.857      -1528.8926      26401.325      29.776609      1.1894141    
    748500   304.87005      1273.527       1128.9891      26254.519      29.721315      1.1960648    
    748600   296.30138      1354.5803      1312.8938      26180.962      29.693532      1.1994253    
    748700   301.71558      1281.0153     -257.53987      26457.84       29.797841      1.1868734    
    748800   292.1523       1336.9586      2545.7333      26260.493      29.723569      1.1957928    
    748900   296.45072      1277.7401      608.06335      26350.473      29.757479      1.1917094    
    749000   299.42487      1264.7108     -543.24262      26285.582      29.733032      1.1946514    
    749100   301.1711       1313.9657     -36.766436      26182.286      29.694033      1.1993646    
    749200   307.33556      1272.1377     -505.45688      26089.385      29.658871      1.2036354    
    749300   295.26535      1288.9677     -907.24828      26436.418      29.789796      1.1878352    
    749400   294.10946      1259.7001      1435.5988      26186.74       29.695717      1.1991606    
    749500   291.98911      1306.7007     -338.2163       26253.329      29.720866      1.1961191    
    749600   306.24205      1212.7273      1484.5709      26162.504      29.686553      1.2002715    
    749700   300.25383      1289.6705     -512.35946      26149.762      29.681732      1.2008563    
    749800   295.54174      1324.737      -35.344309      26379.738      29.768491      1.1903874    
    749900   295.14765      1318.1619     -431.88676      26418.829      29.783188      1.188626     
    750000   298.99466      1281.7986      585.79715      26330.618      29.750003      1.192608     
    750100   295.59138      1318.3802     -2206.7471      26107.797      29.665846      1.2027866    
    750200   302.92255      1240.6171      2417.6214      25836.453      29.562714      1.2154187    
    750300   307.97086      1202.204      -175.38371      25845.549      29.566182      1.2149909    
    750400   294.39073      1314.9469     -2055.2932      26038.985      29.63976       1.2059651    
    750500   297.49392      1263.3979      567.81068      26066.776      29.650301      1.2046794    
    750600   294.22791      1258.7177      2117.0047      26161.824      29.686295      1.2003027    
    750700   293.13081      1309.1877     -871.86398      26269.917      29.727124      1.1953638    
    750800   308.55344      1255.059       1631.9416      25918.757      29.594072      1.2115592    
    750900   297.719        1342.1644      1393.8753      26119.303      29.670204      1.2022567    
    751000   301.33354      1244.8637      419.84868      26108.589      29.666146      1.2027501    
    751100   295.74164      1269.6092      253.02218      26226.512      29.710743      1.1973421    
    751200   299.55229      1251.0188      838.43459      26049.767      29.64385       1.205466     
    751300   305.09599      1215.4019      1383.3023      26026.504      29.635024      1.2065434    
    751400   301.6017       1283.6656      61.850318      26009.71       29.628648      1.2073225    
    751500   304.23348      1334.5408     -511.75099      26087.931      29.65832       1.2037025    
    751600   305.45592      1278.8108      2049.9161      26044.455      29.641835      1.2057118    
    751651   296.64116      1290.9831      773.52109      26097.918      29.662104      1.2032419    
Loop time of 4972.32 on 1 procs for 250000 steps with 2988 atoms

Performance: 4.344 ns/day, 5.525 hours/ns, 50.278 timesteps/s
99.1% CPU use with 1 MPI tasks x 1 OpenMP threads

MPI task timing breakdown:
Section |  min time  |  avg time  |  max time  |%varavg| %total
---------------------------------------------------------------
Pair    | 4168.4     | 4168.4     | 4168.4     |   0.0 | 83.83
Bond    | 141.46     | 141.46     | 141.46     |   0.0 |  2.84
Neigh   | 566.33     | 566.33     | 566.33     |   0.0 | 11.39
Comm    | 29.012     | 29.012     | 29.012     |   0.0 |  0.58
Output  | 18.581     | 18.581     | 18.581     |   0.0 |  0.37
Modify  | 40.254     | 40.254     | 40.254     |   0.0 |  0.81
Other   |            | 8.241      |            |       |  0.17

Nlocal:           2988 ave        2988 max        2988 min
Histogram: 1 0 0 0 0 0 0 0 0 0
Nghost:          14779 ave       14779 max       14779 min
Histogram: 1 0 0 0 0 0 0 0 0 0
Neighs:    1.22209e+06 ave 1.22209e+06 max 1.22209e+06 min
Histogram: 1 0 0 0 0 0 0 0 0 0

Total # of neighbors = 1222088
Ave neighs/atom = 408.99866
Ave special neighs/atom = 12.156627
Neighbor list builds = 12052
Dangerous builds = 0
unfix			1
#final
write_data		after_cross_linking_correctm.data
System init for write_data ...
Generated 153 of 153 mixed pair_coeff terms from geometric mixing rule

#parameter
neighbor		2.0 bin
Total wall time: 4:03:58
