LAMMPS (23 Jun 2022 - Update 1)
OMP_NUM_THREADS environment is not set. Defaulting to 1 thread. (src/comm.cpp:98)
  using 1 OpenMP thread(s) per MPI task
Loaded 1 plugins from C:\Users\HP\AppData\Local\LAMMPS 64-bit 23Jun2022\plugins
package omp 0
using multi-threaded neighbor list subroutines
package omp 4
set 4 OpenMP thread(s) per MPI task
using multi-threaded neighbor list subroutines
# Setup output
units			real
dimension		3
processors		* * *
boundary		p p p
atom_style		full
pair_style		lj/cut 10.0
bond_style		harmonic
angle_style 	harmonic
read_data		after_cross_linking_correct.data
Reading data file ...
  orthogonal box = (30.222448 27.307948 30.19145) to (59.884552 56.970052 59.853554)
  1 by 1 by 1 MPI processor grid
  reading atoms ...
  2988 atoms
  reading velocities ...
  2988 velocities
  scanning bonds ...
  4 = max bonds/atom
  scanning angles ...
  6 = max angles/atom
  reading bonds ...
  3044 bonds
  reading angles ...
  5800 angles
Finding 1-2 1-3 1-4 neighbors ...
  special bond factors lj:    0        0        0       
  special bond factors coul:  0        0        0       
     4 = max # of 1-2 neighbors
     7 = max # of 1-3 neighbors
    16 = max # of 1-4 neighbors
    20 = max # of special neighbors
  special bonds CPU = 0.005 seconds
  read_data CPU = 0.073 seconds

variable        nsteps index 100000    # length of run
variable        nthermo index  100    # thermo output interval
variable        T    equal 300         # Temperature in K

variable kb        equal 1.38065e-23
variable at2Pa     equal 101325
variable Myvol     equal "vol*10^-30"
variable kcalmol2J equal "4183.9954/(6.022e23)"
variable kbt       equal "v_kb*v_T"
variable Nat       equal atoms
variable Rhokbt    equal "v_kbt*v_Nat/v_Myvol"
variable C1        equal "v_kcalmol2J/v_Myvol"
variable C2        equal "v_Myvol/v_kbt"
variable Pa2GPa    equal 1e-9

# Stress fluctuation term F

compute stress all pressure NULL virial
variable s1 equal "-c_stress[1]*v_at2Pa"
variable s2 equal "-c_stress[2]*v_at2Pa"
variable s3 equal "-c_stress[3]*v_at2Pa"
variable s4 equal "-c_stress[6]*v_at2Pa"
variable s5 equal "-c_stress[5]*v_at2Pa"
variable s6 equal "-c_stress[4]*v_at2Pa"

variable s11 equal v_s1*v_s1
variable s22 equal v_s2*v_s2
variable s33 equal v_s3*v_s3
variable s44 equal v_s4*v_s4
variable s55 equal v_s5*v_s5
variable s66 equal v_s6*v_s6
variable s33 equal v_s3*v_s3
variable s12 equal v_s1*v_s2
variable s13 equal v_s1*v_s3
variable s14 equal v_s1*v_s4
variable s15 equal v_s1*v_s5
variable s16 equal v_s1*v_s6
variable s23 equal v_s2*v_s3
variable s24 equal v_s2*v_s4
variable s25 equal v_s2*v_s5
variable s26 equal v_s2*v_s6
variable s34 equal v_s3*v_s4
variable s35 equal v_s3*v_s5
variable s36 equal v_s3*v_s6
variable s45 equal v_s4*v_s5
variable s46 equal v_s4*v_s6
variable s56 equal v_s5*v_s6

variable mytemp equal temp
variable mypress equal press
variable mype equal pe/atoms

fix avs all ave/time 1 ${nthermo} ${nthermo} v_s1 v_s2 v_s3 v_s4 v_s5 v_s6 ave running
fix avs all ave/time 1 100 ${nthermo} v_s1 v_s2 v_s3 v_s4 v_s5 v_s6 ave running
fix avs all ave/time 1 100 100 v_s1 v_s2 v_s3 v_s4 v_s5 v_s6 ave running
fix avssq all ave/time 1 ${nthermo} ${nthermo} v_s11 v_s22 v_s33 v_s44 v_s55 v_s66 v_s12 v_s13 v_s14 v_s15 v_s16 v_s23 v_s24 v_s25 v_s26 v_s34 v_s35 v_s36 v_s45 v_s46 v_s56 ave running
fix avssq all ave/time 1 100 ${nthermo} v_s11 v_s22 v_s33 v_s44 v_s55 v_s66 v_s12 v_s13 v_s14 v_s15 v_s16 v_s23 v_s24 v_s25 v_s26 v_s34 v_s35 v_s36 v_s45 v_s46 v_s56 ave running
fix avssq all ave/time 1 100 100 v_s11 v_s22 v_s33 v_s44 v_s55 v_s66 v_s12 v_s13 v_s14 v_s15 v_s16 v_s23 v_s24 v_s25 v_s26 v_s34 v_s35 v_s36 v_s45 v_s46 v_s56 ave running

compute     born all born/matrix numdiff 1e-6 stress
fix 	    avborn all ave/time 1 ${nthermo} ${nthermo} c_born[*] ave running
fix 	    avborn all ave/time 1 100 ${nthermo} c_born[*] ave running
fix 	    avborn all ave/time 1 100 100 c_born[*] ave running

thermo      ${nthermo}
thermo      100
thermo_style    custom step temp press  c_born[1] f_avborn[1] c_born[12] f_avborn[12] c_born[4] f_avborn[4]
thermo_modify line multi

fix     1 all nvt temp $T $T 100
fix     1 all nvt temp 300 $T 100
fix     1 all nvt temp 300 300 100

run         ${nsteps}
run         100000
Generated 153 of 153 mixed pair_coeff terms from geometric mixing rule
Last active /omp style is angle_style harmonic/omp
Neighbor list info ...
  update every 1 steps, delay 10 steps, check yes
  max neighbors/atom: 2000, page size: 100000
  master list distance cutoff = 12
  ghost atom cutoff = 12
  binsize = 6, bins = 5 5 5
  1 neighbor lists, perpetual/occasional/extra = 1 0 0
  (1) pair lj/cut/omp, perpetual
      attributes: half, newton on, omp
      pair build: half/bin/newton/omp
      stencil: half/bin/3d
      bin: standard
WARNING: Inconsistent image flags (src/domain.cpp:819)
Per MPI rank memory allocation (min/avg/max) = 28.16 | 28.16 | 28.16 Mbytes
------------ Step              0 ----- CPU =            0 (sec) -------------
Step     =              0 Temp     =       296.6412 Press    =       773.5211 
c_born[1] =    890438.6256 f_avborn[1] =         0.0000 c_born[12] =    174234.7200 
f_avborn[12] =         0.0000 c_born[4] =    346729.4185 f_avborn[4] =         0.0000
------------ Step            100 ----- CPU =     17.78679 (sec) -------------
Step     =            100 Temp     =       303.2238 Press    =      -563.1581 
c_born[1] =    882805.8132 f_avborn[1] =    883235.3962 c_born[12] =    175534.7303 
f_avborn[12] =    175352.8381 c_born[4] =    347947.0383 f_avborn[4] =    347956.4388
------------ Step            200 ----- CPU =      32.9927 (sec) -------------
Step     =            200 Temp     =       300.2419 Press    =       893.5074 
c_born[1] =    886757.6937 f_avborn[1] =    885060.9997 c_born[12] =    173606.3252 
f_avborn[12] =    175058.4217 c_born[4] =    346432.0161 f_avborn[4] =    347527.2708
------------ Step            300 ----- CPU =     50.35145 (sec) -------------
Step     =            300 Temp     =       305.0961 Press    =       180.9274 
c_born[1] =    893136.8555 f_avborn[1] =    886790.8079 c_born[12] =    173629.9337 
f_avborn[12] =    174721.7341 c_born[4] =    346014.6509 f_avborn[4] =    347261.9617
------------ Step            400 ----- CPU =     69.62728 (sec) -------------
Step     =            400 Temp     =       297.0991 Press    =     -2440.4284 
c_born[1] =    883352.8313 f_avborn[1] =    886339.5653 c_born[12] =    174471.7315 
f_avborn[12] =    174434.7678 c_born[4] =    346891.7582 f_avborn[4] =    347048.1650
------------ Step            500 ----- CPU =     87.69151 (sec) -------------
Step     =            500 Temp     =       290.2210 Press    =     -1387.0066 
c_born[1] =    884890.1937 f_avborn[1] =    885020.3724 c_born[12] =    174014.3924 
f_avborn[12] =    174580.6764 c_born[4] =    346536.3169 f_avborn[4] =    347219.3068
------------ Step            600 ----- CPU =     104.9426 (sec) -------------
Step     =            600 Temp     =       297.0662 Press    =       319.3519 
c_born[1] =    890647.2134 f_avborn[1] =    885468.2431 c_born[12] =    173119.0253 
f_avborn[12] =    174529.8118 c_born[4] =    344625.5206 f_avborn[4] =    347043.9481
------------ Step            700 ----- CPU =     121.2378 (sec) -------------
Step     =            700 Temp     =       295.6491 Press    =      1006.2935 
c_born[1] =    881561.4169 f_avborn[1] =    885310.8897 c_born[12] =    174136.6550 
f_avborn[12] =    174416.8710 c_born[4] =    348307.3266 f_avborn[4] =    346915.7529
------------ Step            800 ----- CPU =     137.1389 (sec) -------------
Step     =            800 Temp     =       308.4668 Press    =     -2934.3966 
c_born[1] =    882222.3668 f_avborn[1] =    885193.4132 c_born[12] =    175015.1228 
f_avborn[12] =    174515.8812 c_born[4] =    347763.8374 f_avborn[4] =    347052.9386
------------ Step            900 ----- CPU =     152.7868 (sec) -------------
Step     =            900 Temp     =       301.0483 Press    =      -559.8234 
c_born[1] =    888061.9538 f_avborn[1] =    885072.9343 c_born[12] =    174836.7748 
f_avborn[12] =    174728.0021 c_born[4] =    347112.5743 f_avborn[4] =    347253.4187
------------ Step           1000 ----- CPU =     168.4413 (sec) -------------
Step     =           1000 Temp     =       299.8504 Press    =     -3749.4676 
c_born[1] =    881649.5538 f_avborn[1] =    885047.8503 c_born[12] =    175250.2220 
f_avborn[12] =    174772.0124 c_born[4] =    348816.9342 f_avborn[4] =    347284.4323
------------ Step           1100 ----- CPU =     183.8219 (sec) -------------
Step     =           1100 Temp     =       299.2546 Press    =      -747.1513 
c_born[1] =    883762.8268 f_avborn[1] =    885146.8005 c_born[12] =    177037.8690 
f_avborn[12] =    174772.3501 c_born[4] =    350894.1849 f_avborn[4] =    347323.3332
------------ Step           1200 ----- CPU =     199.3624 (sec) -------------
Step     =           1200 Temp     =       295.2334 Press    =     -1957.9983 
c_born[1] =    892726.6259 f_avborn[1] =    885540.4171 c_born[12] =    178057.4236 
f_avborn[12] =    174947.3323 c_born[4] =    350199.5433 f_avborn[4] =    347497.1394
------------ Step           1300 ----- CPU =     214.7255 (sec) -------------
Step     =           1300 Temp     =       300.9271 Press    =        25.4429 
c_born[1] =    886320.0548 f_avborn[1] =    885628.8208 c_born[12] =    176399.1687 
f_avborn[12] =    175246.6463 c_born[4] =    349587.0207 f_avborn[4] =    347829.1122
------------ Step           1400 ----- CPU =     230.2016 (sec) -------------
Step     =           1400 Temp     =       305.1996 Press    =       663.7295 
c_born[1] =    887977.4181 f_avborn[1] =    885964.1805 c_born[12] =    179036.8211 
f_avborn[12] =    175441.3429 c_born[4] =    351252.1250 f_avborn[4] =    348015.0812
------------ Step           1500 ----- CPU =     245.6018 (sec) -------------
Step     =           1500 Temp     =       312.5910 Press    =       953.4384 
c_born[1] =    887760.5364 f_avborn[1] =    885918.3496 c_born[12] =    178506.7257 
f_avborn[12] =    175604.7149 c_born[4] =    351436.0453 f_avborn[4] =    348186.2321
------------ Step           1600 ----- CPU =     260.9542 (sec) -------------
Step     =           1600 Temp     =       310.5871 Press    =      -530.6289 
c_born[1] =    895620.9851 f_avborn[1] =    886345.3673 c_born[12] =    177561.5788 
f_avborn[12] =    175796.6481 c_born[4] =    349585.4465 f_avborn[4] =    348356.5490
------------ Step           1700 ----- CPU =     276.2085 (sec) -------------
Step     =           1700 Temp     =       302.5396 Press    =       314.7225 
c_born[1] =    894466.8247 f_avborn[1] =    886723.8916 c_born[12] =    176273.5587 
f_avborn[12] =    175848.7144 c_born[4] =    348100.8339 f_avborn[4] =    348380.6916
------------ Step           1800 ----- CPU =     291.3272 (sec) -------------
Step     =           1800 Temp     =       300.4776 Press    =      -214.3211 
c_born[1] =    885226.1442 f_avborn[1] =    886847.2739 c_born[12] =    176172.8143 
f_avborn[12] =    175847.8673 c_born[4] =    348909.7254 f_avborn[4] =    348370.6574
------------ Step           1900 ----- CPU =      306.523 (sec) -------------
Step     =           1900 Temp     =       299.5534 Press    =       668.1002 
c_born[1] =    885170.4974 f_avborn[1] =    886783.2381 c_born[12] =    176958.5302 
f_avborn[12] =    175871.0210 c_born[4] =    349542.3816 f_avborn[4] =    348395.4787
------------ Step           2000 ----- CPU =     321.7673 (sec) -------------
Step     =           2000 Temp     =       299.5146 Press    =      -499.1480 
c_born[1] =    881081.4654 f_avborn[1] =    886727.0370 c_born[12] =    176154.4165 
f_avborn[12] =    175894.6071 c_born[4] =    348502.4292 f_avborn[4] =    348386.4759
------------ Step           2100 ----- CPU =     337.2141 (sec) -------------
Step     =           2100 Temp     =       304.7240 Press    =        43.7858 
c_born[1] =    884463.1005 f_avborn[1] =    886567.4146 c_born[12] =    175831.9802 
f_avborn[12] =    175858.8964 c_born[4] =    348430.0851 f_avborn[4] =    348333.2522
------------ Step           2200 ----- CPU =     352.6344 (sec) -------------
Step     =           2200 Temp     =       304.1797 Press    =       555.1888 
c_born[1] =    891547.3905 f_avborn[1] =    886519.5359 c_born[12] =    176055.6232 
f_avborn[12] =    175881.9327 c_born[4] =    348454.4211 f_avborn[4] =    348379.3839
------------ Step           2300 ----- CPU =     367.9252 (sec) -------------
Step     =           2300 Temp     =       301.1474 Press    =      -859.8735 
c_born[1] =    891494.4093 f_avborn[1] =    886649.3297 c_born[12] =    177805.8072 
f_avborn[12] =    175893.5374 c_born[4] =    350012.8384 f_avborn[4] =    348381.4959
------------ Step           2400 ----- CPU =     383.3322 (sec) -------------
Step     =           2400 Temp     =       296.4921 Press    =      -185.7044 
c_born[1] =    894739.8200 f_avborn[1] =    887066.6293 c_born[12] =    175251.9095 
f_avborn[12] =    175879.0654 c_born[4] =    347496.5827 f_avborn[4] =    348341.5675
------------ Step           2500 ----- CPU =     398.6294 (sec) -------------
Step     =           2500 Temp     =       302.7810 Press    =      1254.2843 
c_born[1] =    887439.7219 f_avborn[1] =    887225.0002 c_born[12] =    174369.0534 
f_avborn[12] =    175845.5524 c_born[4] =    346588.0863 f_avborn[4] =    348292.8143
------------ Step           2600 ----- CPU =     413.8434 (sec) -------------
Step     =           2600 Temp     =       299.1954 Press    =      -381.9034 
c_born[1] =    883336.8761 f_avborn[1] =    887238.0413 c_born[12] =    173596.1673 
f_avborn[12] =    175816.8371 c_born[4] =    346913.3324 f_avborn[4] =    348263.3631
------------ Step           2700 ----- CPU =     429.1182 (sec) -------------
Step     =           2700 Temp     =       298.1566 Press    =      2352.0063 
c_born[1] =    880633.3667 f_avborn[1] =    886900.4646 c_born[12] =    172950.7637 
f_avborn[12] =    175804.8563 c_born[4] =    346105.4574 f_avborn[4] =    348289.6563
------------ Step           2800 ----- CPU =      444.313 (sec) -------------
Step     =           2800 Temp     =       303.9405 Press    =       488.8661 
c_born[1] =    890682.5052 f_avborn[1] =    887046.8319 c_born[12] =    176038.0980 
f_avborn[12] =    175788.3068 c_born[4] =    348406.9175 f_avborn[4] =    348274.0554
------------ Step           2900 ----- CPU =     459.5826 (sec) -------------
Step     =           2900 Temp     =       304.0437 Press    =     -2587.0177 
c_born[1] =    889602.8684 f_avborn[1] =    887059.7757 c_born[12] =    176738.1975 
f_avborn[12] =    175767.1822 c_born[4] =    349401.8208 f_avborn[4] =    348276.7938
------------ Step           3000 ----- CPU =      474.755 (sec) -------------
Step     =           3000 Temp     =       297.7623 Press    =      -597.9844 
c_born[1] =    879546.9388 f_avborn[1] =    887023.9095 c_born[12] =    176244.3517 
f_avborn[12] =    175764.0681 c_born[4] =    349758.4393 f_avborn[4] =    348283.7806
------------ Step           3100 ----- CPU =     490.3795 (sec) -------------
Step     =           3100 Temp     =       296.6864 Press    =     -1953.5485 
c_born[1] =    892368.8405 f_avborn[1] =    887096.7394 c_born[12] =    175079.5132 
f_avborn[12] =    175773.4925 c_born[4] =    347913.3844 f_avborn[4] =    348296.5058
------------ Step           3200 ----- CPU =     505.5975 (sec) -------------
Step     =           3200 Temp     =       307.4880 Press    =       761.7540 
c_born[1] =    876235.0890 f_avborn[1] =    886998.8619 c_born[12] =    174626.9523 
f_avborn[12] =    175738.7660 c_born[4] =    347524.9191 f_avborn[4] =    348278.5909
------------ Step           3300 ----- CPU =     523.7509 (sec) -------------
Step     =           3300 Temp     =       299.7459 Press    =      1452.4120 
c_born[1] =    892683.6674 f_avborn[1] =    886933.2469 c_born[12] =    175262.6052 
f_avborn[12] =    175755.2623 c_born[4] =    347385.0618 f_avborn[4] =    348299.6560
------------ Step           3400 ----- CPU =     538.9863 (sec) -------------
Step     =           3400 Temp     =       304.4535 Press    =     -2105.5097 
c_born[1] =    881599.3313 f_avborn[1] =    886861.2707 c_born[12] =    178240.0581 
f_avborn[12] =    175746.7900 c_born[4] =    351266.7936 f_avborn[4] =    348293.8114
------------ Step           3500 ----- CPU =     554.2105 (sec) -------------
Step     =           3500 Temp     =       310.1056 Press    =     -1297.1766 
c_born[1] =    881908.6664 f_avborn[1] =    886762.0988 c_born[12] =    175445.8409 
f_avborn[12] =    175779.6779 c_born[4] =    348161.9304 f_avborn[4] =    348332.3048
------------ Step           3600 ----- CPU =     569.4261 (sec) -------------
Step     =           3600 Temp     =       291.5358 Press    =        21.1831 
c_born[1] =    882023.2041 f_avborn[1] =    886680.3794 c_born[12] =    175426.6471 
f_avborn[12] =    175796.6466 c_born[4] =    348679.1613 f_avborn[4] =    348355.2890
------------ Step           3700 ----- CPU =     584.6181 (sec) -------------
Step     =           3700 Temp     =       301.3313 Press    =        79.3250 
c_born[1] =    886492.2609 f_avborn[1] =    886624.0484 c_born[12] =    174000.5735 
f_avborn[12] =    175785.4217 c_born[4] =    346848.7275 f_avborn[4] =    348346.8303
------------ Step           3800 ----- CPU =     599.7974 (sec) -------------
Step     =           3800 Temp     =       302.0071 Press    =      2060.4517 
c_born[1] =    888196.5306 f_avborn[1] =    886707.9975 c_born[12] =    176109.1109 
f_avborn[12] =    175729.3195 c_born[4] =    348378.3183 f_avborn[4] =    348289.5516
------------ Step           3900 ----- CPU =     615.0433 (sec) -------------
Step     =           3900 Temp     =       304.6222 Press    =      2517.0295 
c_born[1] =    877288.4470 f_avborn[1] =    886505.1629 c_born[12] =    179113.1308 
f_avborn[12] =    175773.1566 c_born[4] =    352863.2160 f_avborn[4] =    348359.3282
------------ Step           4000 ----- CPU =     630.2312 (sec) -------------
Step     =           4000 Temp     =       309.4255 Press    =      2333.0411 
c_born[1] =    877562.7033 f_avborn[1] =    886356.0118 c_born[12] =    174923.2561 
f_avborn[12] =    175812.1683 c_born[4] =    348247.5915 f_avborn[4] =    348418.1752
------------ Step           4100 ----- CPU =     646.8475 (sec) -------------
Step     =           4100 Temp     =       300.7633 Press    =     -1722.8550 
c_born[1] =    883335.5076 f_avborn[1] =    886204.3648 c_born[12] =    178116.4783 
f_avborn[12] =    175853.9361 c_born[4] =    352161.3555 f_avborn[4] =    348478.5639
------------ Step           4200 ----- CPU =     661.9069 (sec) -------------
Step     =           4200 Temp     =       297.3919 Press    =      -693.2982 
c_born[1] =    888579.6488 f_avborn[1] =    886238.7960 c_born[12] =    176996.1515 
f_avborn[12] =    175893.0901 c_born[4] =    350143.3538 f_avborn[4] =    348536.1668
------------ Step           4300 ----- CPU =     677.1521 (sec) -------------
Step     =           4300 Temp     =       301.4968 Press    =      1438.1768 
c_born[1] =    890663.9086 f_avborn[1] =    886180.1351 c_born[12] =    177687.1550 
f_avborn[12] =    175920.8552 c_born[4] =    349985.7234 f_avborn[4] =    348574.6042
------------ Step           4400 ----- CPU =     692.3498 (sec) -------------
Step     =           4400 Temp     =       298.7090 Press    =      -485.8178 
c_born[1] =    882057.2116 f_avborn[1] =    886105.7823 c_born[12] =    174200.3790 
f_avborn[12] =    175914.9102 c_born[4] =    348140.3071 f_avborn[4] =    348588.3925
------------ Step           4500 ----- CPU =     707.5551 (sec) -------------
Step     =           4500 Temp     =       300.0983 Press    =      1428.2873 
c_born[1] =    887892.6475 f_avborn[1] =    886056.0026 c_born[12] =    177696.7810 
f_avborn[12] =    175905.2890 c_born[4] =    350877.8526 f_avborn[4] =    348604.5117
------------ Step           4600 ----- CPU =     722.8535 (sec) -------------
Step     =           4600 Temp     =       307.1552 Press    =      1282.2181 
c_born[1] =    888936.6272 f_avborn[1] =    886131.7930 c_born[12] =    175650.2263 
f_avborn[12] =    175937.2500 c_born[4] =    348880.4603 f_avborn[4] =    348645.1740
------------ Step           4700 ----- CPU =     738.0702 (sec) -------------
Step     =           4700 Temp     =       308.3376 Press    =       822.2702 
c_born[1] =    894253.6601 f_avborn[1] =    886165.7037 c_born[12] =    175370.6817 
f_avborn[12] =    175920.9065 c_born[4] =    348303.7639 f_avborn[4] =    348641.5131
------------ Step           4800 ----- CPU =     753.1927 (sec) -------------
Step     =           4800 Temp     =       297.8656 Press    =      -573.0675 
c_born[1] =    880563.7394 f_avborn[1] =    886232.1737 c_born[12] =    178637.7558 
f_avborn[12] =    175917.1702 c_born[4] =    352199.6836 f_avborn[4] =    348636.4127
------------ Step           4900 ----- CPU =     768.4132 (sec) -------------
Step     =           4900 Temp     =       299.2858 Press    =       101.8876 
c_born[1] =    885445.1006 f_avborn[1] =    886130.3787 c_born[12] =    176104.4258 
f_avborn[12] =    175939.1526 c_born[4] =    348778.6880 f_avborn[4] =    348663.8436
------------ Step           5000 ----- CPU =     783.5846 (sec) -------------
Step     =           5000 Temp     =       304.2942 Press    =      -343.4750 
c_born[1] =    889575.5216 f_avborn[1] =    886160.4813 c_born[12] =    177298.7933 
f_avborn[12] =    175944.8566 c_born[4] =    349658.4464 f_avborn[4] =    348665.1511
------------ Step           5100 ----- CPU =     798.7854 (sec) -------------
Step     =           5100 Temp     =       304.8407 Press    =      -659.7316 
c_born[1] =    878423.8049 f_avborn[1] =    886200.3388 c_born[12] =    174947.4050 
f_avborn[12] =    175942.5050 c_born[4] =    348349.1739 f_avborn[4] =    348664.5236
------------ Step           5200 ----- CPU =     813.9624 (sec) -------------
Step     =           5200 Temp     =       299.7124 Press    =     -1051.2613 
c_born[1] =    880572.3120 f_avborn[1] =    886049.3460 c_born[12] =    176394.9782 
f_avborn[12] =    175947.0418 c_born[4] =    349863.3382 f_avborn[4] =    348676.2343
------------ Step           5300 ----- CPU =     831.7604 (sec) -------------
Step     =           5300 Temp     =       289.0357 Press    =       -20.8596 
c_born[1] =    889840.5235 f_avborn[1] =    886068.5651 c_born[12] =    171184.6645 
f_avborn[12] =    175905.4424 c_born[4] =    343769.2134 f_avborn[4] =    348633.8386
------------ Step           5400 ----- CPU =     847.0838 (sec) -------------
Step     =           5400 Temp     =       293.0302 Press    =      -747.4630 
c_born[1] =    895563.0908 f_avborn[1] =    886106.8657 c_born[12] =    177059.1193 
f_avborn[12] =    175878.2025 c_born[4] =    348916.1561 f_avborn[4] =    348599.6094
------------ Step           5500 ----- CPU =     862.1724 (sec) -------------
Step     =           5500 Temp     =       297.0493 Press    =     -2657.3550 
c_born[1] =    889973.2578 f_avborn[1] =    886077.5743 c_born[12] =    173475.4625 
f_avborn[12] =    175875.2156 c_born[4] =    345480.8526 f_avborn[4] =    348590.5012
------------ Step           5600 ----- CPU =     877.3569 (sec) -------------
Step     =           5600 Temp     =       302.1298 Press    =       532.9181 
c_born[1] =    882731.9124 f_avborn[1] =    886094.8216 c_born[12] =    176546.8977 
f_avborn[12] =    175848.9800 c_born[4] =    350246.8896 f_avborn[4] =    348570.6937
------------ Step           5700 ----- CPU =     892.8987 (sec) -------------
Step     =           5700 Temp     =       299.6187 Press    =      -732.6874 
c_born[1] =    879625.8347 f_avborn[1] =    885892.8474 c_born[12] =    174870.9799 
f_avborn[12] =    175833.4701 c_born[4] =    347879.1696 f_avborn[4] =    348575.6249
------------ Step           5800 ----- CPU =     908.1125 (sec) -------------
Step     =           5800 Temp     =       297.6790 Press    =       262.3571 
c_born[1] =    880894.1366 f_avborn[1] =    885843.3293 c_born[12] =    174771.9057 
f_avborn[12] =    175839.7190 c_born[4] =    348053.7681 f_avborn[4] =    348585.3077
------------ Step           5900 ----- CPU =     923.4275 (sec) -------------
Step     =           5900 Temp     =       305.6280 Press    =      -573.4555 
c_born[1] =    886273.9221 f_avborn[1] =    885738.3561 c_born[12] =    171939.2772 
f_avborn[12] =    175784.0699 c_born[4] =    343429.4483 f_avborn[4] =    348535.7408
------------ Step           6000 ----- CPU =     938.9369 (sec) -------------
Step     =           6000 Temp     =       289.8798 Press    =       631.7102 
c_born[1] =    884054.2815 f_avborn[1] =    885751.5133 c_born[12] =    174158.1115 
f_avborn[12] =    175757.9568 c_born[4] =    347383.4041 f_avborn[4] =    348507.4260
------------ Step           6100 ----- CPU =     954.2321 (sec) -------------
Step     =           6100 Temp     =       292.6607 Press    =       820.1261 
c_born[1] =    883088.8885 f_avborn[1] =    885712.7185 c_born[12] =    170865.2340 
f_avborn[12] =    175727.4497 c_born[4] =    343834.5833 f_avborn[4] =    348484.3030
------------ Step           6200 ----- CPU =     969.4979 (sec) -------------
Step     =           6200 Temp     =       300.9928 Press    =      2729.0470 
c_born[1] =    886412.5450 f_avborn[1] =    885782.6242 c_born[12] =    173133.5494 
f_avborn[12] =    175679.5488 c_born[4] =    345726.0393 f_avborn[4] =    348426.9058
------------ Step           6300 ----- CPU =     984.7597 (sec) -------------
Step     =           6300 Temp     =       299.7595 Press    =        90.5276 
c_born[1] =    877876.4109 f_avborn[1] =    885745.4762 c_born[12] =    172509.0976 
f_avborn[12] =    175638.3251 c_born[4] =    346328.0853 f_avborn[4] =    348384.4233
------------ Step           6400 ----- CPU =     1000.006 (sec) -------------
Step     =           6400 Temp     =       303.5427 Press    =      -802.6449 
c_born[1] =    890824.7225 f_avborn[1] =    885684.3009 c_born[12] =    173765.2057 
f_avborn[12] =    175629.1968 c_born[4] =    345955.2578 f_avborn[4] =    348376.3734
------------ Step           6500 ----- CPU =     1015.299 (sec) -------------
Step     =           6500 Temp     =       298.7263 Press    =      -402.3181 
c_born[1] =    877797.5101 f_avborn[1] =    885683.6544 c_born[12] =    172989.6083 
f_avborn[12] =    175595.5393 c_born[4] =    345874.3998 f_avborn[4] =    348334.4965
------------ Step           6600 ----- CPU =     1030.688 (sec) -------------
Step     =           6600 Temp     =       291.6085 Press    =     -1256.2408 
c_born[1] =    890228.7923 f_avborn[1] =    885630.4901 c_born[12] =    174371.6864 
f_avborn[12] =    175572.9881 c_born[4] =    347072.6730 f_avborn[4] =    348316.7112
------------ Step           6700 ----- CPU =     1045.925 (sec) -------------
Step     =           6700 Temp     =       293.0795 Press    =       234.7055 
c_born[1] =    894706.3562 f_avborn[1] =    885691.1247 c_born[12] =    174852.1640 
f_avborn[12] =    175538.2705 c_born[4] =    346939.4343 f_avborn[4] =    348277.4885
------------ Step           6800 ----- CPU =     1061.224 (sec) -------------
Step     =           6800 Temp     =       297.8143 Press    =      -494.3996 
c_born[1] =    896298.9808 f_avborn[1] =    885803.2656 c_born[12] =    175397.7454 
f_avborn[12] =    175537.7141 c_born[4] =    346530.3711 f_avborn[4] =    348262.4415
------------ Step           6900 ----- CPU =     1076.531 (sec) -------------
Step     =           6900 Temp     =       303.2533 Press    =       -86.8686 
c_born[1] =    899920.5499 f_avborn[1] =    885940.4705 c_born[12] =    176240.9267 
f_avborn[12] =    175540.4925 c_born[4] =    347327.8832 f_avborn[4] =    348250.2515
------------ Step           7000 ----- CPU =     1091.836 (sec) -------------
Step     =           7000 Temp     =       299.4248 Press    =       884.4768 
c_born[1] =    891099.9058 f_avborn[1] =    886039.8296 c_born[12] =    174690.1737 
f_avborn[12] =    175550.3976 c_born[4] =    346746.7654 f_avborn[4] =    348243.5694
------------ Step           7100 ----- CPU =     1107.085 (sec) -------------
Step     =           7100 Temp     =       297.6058 Press    =      -819.1606 
c_born[1] =    894374.3224 f_avborn[1] =    886098.8917 c_born[12] =    175158.4180 
f_avborn[12] =    175529.1665 c_born[4] =    346735.4158 f_avborn[4] =    348216.9356
------------ Step           7200 ----- CPU =     1122.913 (sec) -------------
Step     =           7200 Temp     =       294.6878 Press    =      1326.0293 
c_born[1] =    891817.2446 f_avborn[1] =    886163.9790 c_born[12] =    172358.5984 
f_avborn[12] =    175518.9807 c_born[4] =    343647.8173 f_avborn[4] =    348196.4460
------------ Step           7300 ----- CPU =     1138.263 (sec) -------------
Step     =           7300 Temp     =       302.0100 Press    =      -780.6202 
c_born[1] =    893672.6519 f_avborn[1] =    886245.2918 c_born[12] =    173110.0794 
f_avborn[12] =    175497.8830 c_born[4] =    345212.8444 f_avborn[4] =    348163.0182
------------ Step           7400 ----- CPU =     1153.537 (sec) -------------
Step     =           7400 Temp     =       305.6654 Press    =     -1056.0790 
c_born[1] =    890582.1388 f_avborn[1] =    886413.6175 c_born[12] =    174245.5240 
f_avborn[12] =    175458.5413 c_born[4] =    346043.5002 f_avborn[4] =    348108.8952
------------ Step           7500 ----- CPU =      1168.78 (sec) -------------
Step     =           7500 Temp     =       303.9655 Press    =       833.9031 
c_born[1] =    901988.5879 f_avborn[1] =    886515.2930 c_born[12] =    172634.1714 
f_avborn[12] =    175438.8291 c_born[4] =    344699.8056 f_avborn[4] =    348083.0247
------------ Step           7600 ----- CPU =     1184.132 (sec) -------------
Step     =           7600 Temp     =       299.2591 Press    =       284.2765 
c_born[1] =    888855.2709 f_avborn[1] =    886614.9650 c_born[12] =    174872.5717 
f_avborn[12] =    175391.8836 c_born[4] =    347170.6200 f_avborn[4] =    348030.6312
------------ Step           7700 ----- CPU =      1199.36 (sec) -------------
Step     =           7700 Temp     =       296.3953 Press    =      1407.3107 
c_born[1] =    883618.4391 f_avborn[1] =    886610.6414 c_born[12] =    176405.7049 
f_avborn[12] =    175399.6129 c_born[4] =    349167.4452 f_avborn[4] =    348037.5630
------------ Step           7800 ----- CPU =     1214.627 (sec) -------------
Step     =           7800 Temp     =       296.0345 Press    =      3716.8425 
c_born[1] =    894339.1283 f_avborn[1] =    886624.8065 c_born[12] =    175518.4502 
f_avborn[12] =    175407.4466 c_born[4] =    347744.0278 f_avborn[4] =    348050.9049
------------ Step           7900 ----- CPU =     1229.941 (sec) -------------
Step     =           7900 Temp     =       298.7734 Press    =      2288.9119 
c_born[1] =    886644.1324 f_avborn[1] =    886668.2317 c_born[12] =    173639.2913 
f_avborn[12] =    175389.5566 c_born[4] =    347422.9173 f_avborn[4] =    348035.4410
------------ Step           8000 ----- CPU =     1246.109 (sec) -------------
Step     =           8000 Temp     =       302.9651 Press    =       587.0499 
c_born[1] =    881851.9600 f_avborn[1] =    886671.2173 c_born[12] =    177484.4402 
f_avborn[12] =    175390.8700 c_born[4] =    350302.9247 f_avborn[4] =    348044.6258
------------ Step           8100 ----- CPU =     1261.243 (sec) -------------
Step     =           8100 Temp     =       306.3515 Press    =      -876.0066 
c_born[1] =    883714.2952 f_avborn[1] =    886618.2694 c_born[12] =    173715.1189 
f_avborn[12] =    175391.4308 c_born[4] =    345926.9764 f_avborn[4] =    348048.3352
------------ Step           8200 ----- CPU =     1276.519 (sec) -------------
Step     =           8200 Temp     =       301.0575 Press    =       429.9606 
c_born[1] =    885417.0143 f_avborn[1] =    886601.9161 c_born[12] =    175721.8299 
f_avborn[12] =    175368.2048 c_born[4] =    348535.1059 f_avborn[4] =    348021.0979
------------ Step           8300 ----- CPU =     1291.773 (sec) -------------
Step     =           8300 Temp     =       298.0350 Press    =      -258.5812 
c_born[1] =    896656.2788 f_avborn[1] =    886653.9155 c_born[12] =    171883.3316 
f_avborn[12] =    175355.6880 c_born[4] =    343072.1168 f_avborn[4] =    348001.3220
------------ Step           8400 ----- CPU =      1307.07 (sec) -------------
Step     =           8400 Temp     =       300.5592 Press    =     -1148.3779 
c_born[1] =    891030.7017 f_avborn[1] =    886758.6852 c_born[12] =    174758.3425 
f_avborn[12] =    175342.2805 c_born[4] =    347266.5432 f_avborn[4] =    347978.0867
------------ Step           8500 ----- CPU =     1322.336 (sec) -------------
Step     =           8500 Temp     =       298.8448 Press    =      1673.3830 
c_born[1] =    889070.0240 f_avborn[1] =    886757.3236 c_born[12] =    178452.9420 
f_avborn[12] =    175357.3935 c_born[4] =    351290.4006 f_avborn[4] =    347998.6897
------------ Step           8600 ----- CPU =     1337.582 (sec) -------------
Step     =           8600 Temp     =       303.5048 Press    =     -1373.0144 
c_born[1] =    890195.9496 f_avborn[1] =    886767.4786 c_born[12] =    173737.6923 
f_avborn[12] =    175364.4664 c_born[4] =    346088.0081 f_avborn[4] =    348008.7803
------------ Step           8700 ----- CPU =     1352.693 (sec) -------------
Step     =           8700 Temp     =       304.3540 Press    =       539.0533 
c_born[1] =    880153.2655 f_avborn[1] =    886723.8526 c_born[12] =    178533.5223 
f_avborn[12] =    175386.2156 c_born[4] =    352193.8170 f_avborn[4] =    348037.2540
------------ Step           8800 ----- CPU =     1367.987 (sec) -------------
Step     =           8800 Temp     =       297.5391 Press    =      -373.7256 
c_born[1] =    895484.6956 f_avborn[1] =    886759.9230 c_born[12] =    175632.0484 
f_avborn[12] =    175393.0284 c_born[4] =    346815.4191 f_avborn[4] =    348039.7686
------------ Step           8900 ----- CPU =     1383.223 (sec) -------------
Step     =           8900 Temp     =       293.5552 Press    =      -911.6832 
c_born[1] =    884084.0246 f_avborn[1] =    886808.5497 c_born[12] =    175500.0506 
f_avborn[12] =    175390.3169 c_born[4] =    348038.9824 f_avborn[4] =    348030.0409
------------ Step           9000 ----- CPU =     1398.529 (sec) -------------
Step     =           9000 Temp     =       294.1236 Press    =      1361.6791 
c_born[1] =    887023.3498 f_avborn[1] =    886813.1439 c_born[12] =    176834.0008 
f_avborn[12] =    175408.7909 c_born[4] =    349149.9418 f_avborn[4] =    348045.9011
------------ Step           9100 ----- CPU =     1413.712 (sec) -------------
Step     =           9100 Temp     =       306.5497 Press    =      1293.4579 
c_born[1] =    883480.6805 f_avborn[1] =    886732.2582 c_born[12] =    173954.9387 
f_avborn[12] =    175410.7066 c_born[4] =    346567.0926 f_avborn[4] =    348053.8649
------------ Step           9200 ----- CPU =     1429.739 (sec) -------------
Step     =           9200 Temp     =       302.7755 Press    =     -1130.5242 
c_born[1] =    883184.1140 f_avborn[1] =    886712.0943 c_born[12] =    172879.7071 
f_avborn[12] =    175390.6343 c_born[4] =    345910.8361 f_avborn[4] =    348031.9910
------------ Step           9300 ----- CPU =     1445.107 (sec) -------------
Step     =           9300 Temp     =       293.9983 Press    =       615.2177 
c_born[1] =    885086.4989 f_avborn[1] =    886701.4712 c_born[12] =    174108.0133 
f_avborn[12] =    175356.6019 c_born[4] =    346205.7873 f_avborn[4] =    347994.4241
------------ Step           9400 ----- CPU =     1460.412 (sec) -------------
Step     =           9400 Temp     =       291.6185 Press    =      -890.6851 
c_born[1] =    894776.0145 f_avborn[1] =    886700.9983 c_born[12] =    171030.4800 
f_avborn[12] =    175343.1253 c_born[4] =    342492.3901 f_avborn[4] =    347981.4916
------------ Step           9500 ----- CPU =     1475.621 (sec) -------------
Step     =           9500 Temp     =       294.4351 Press    =     -2501.0352 
c_born[1] =    895652.9108 f_avborn[1] =    886755.4537 c_born[12] =    173910.1360 
f_avborn[12] =    175313.3522 c_born[4] =    345042.2150 f_avborn[4] =    347947.4665
------------ Step           9600 ----- CPU =     1491.025 (sec) -------------
Step     =           9600 Temp     =       293.3085 Press    =      1112.0107 
c_born[1] =    885792.0272 f_avborn[1] =    886779.7998 c_born[12] =    174868.2230 
f_avborn[12] =    175296.5042 c_born[4] =    347984.7065 f_avborn[4] =    347929.1602
------------ Step           9700 ----- CPU =     1506.329 (sec) -------------
Step     =           9700 Temp     =       302.4028 Press    =        85.5982 
c_born[1] =    882492.4987 f_avborn[1] =    886744.7048 c_born[12] =    173810.8795 
f_avborn[12] =    175289.8053 c_born[4] =    346749.0941 f_avborn[4] =    347924.2747
------------ Step           9800 ----- CPU =      1521.59 (sec) -------------
Step     =           9800 Temp     =       301.3789 Press    =     -1507.5021 
c_born[1] =    879162.6413 f_avborn[1] =    886693.9231 c_born[12] =    174933.3383 
f_avborn[12] =    175282.0339 c_born[4] =    347981.4246 f_avborn[4] =    347921.2184
------------ Step           9900 ----- CPU =     1537.106 (sec) -------------
Step     =           9900 Temp     =       297.3967 Press    =     -1028.0604 
c_born[1] =    879961.0683 f_avborn[1] =    886617.5030 c_born[12] =    177923.4503 
f_avborn[12] =    175308.6526 c_born[4] =    350524.2753 f_avborn[4] =    347952.3803
------------ Step          10000 ----- CPU =     1552.522 (sec) -------------
Step     =          10000 Temp     =       293.0600 Press    =      1151.8119 
c_born[1] =    882155.9788 f_avborn[1] =    886588.1630 c_born[12] =    177561.6327 
f_avborn[12] =    175330.9981 c_born[4] =    350776.9353 f_avborn[4] =    347974.4542
------------ Step          10100 ----- CPU =     1567.773 (sec) -------------
Step     =          10100 Temp     =       299.3668 Press    =       953.3238 
c_born[1] =    898765.0064 f_avborn[1] =    886621.4235 c_born[12] =    176122.1485 
f_avborn[12] =    175340.5450 c_born[4] =    347756.5016 f_avborn[4] =    347983.2190
------------ Step          10200 ----- CPU =     1583.112 (sec) -------------
Step     =          10200 Temp     =       302.6882 Press    =       415.3604 
c_born[1] =    891944.0306 f_avborn[1] =    886684.6519 c_born[12] =    176560.7504 
f_avborn[12] =    175352.6988 c_born[4] =    349588.0835 f_avborn[4] =    347991.1753
------------ Step          10300 ----- CPU =     1598.437 (sec) -------------
Step     =          10300 Temp     =       305.1245 Press    =      -530.5631 
c_born[1] =    882260.7956 f_avborn[1] =    886699.0084 c_born[12] =    177249.9876 
f_avborn[12] =    175365.8209 c_born[4] =    350840.6491 f_avborn[4] =    348006.6143
------------ Step          10400 ----- CPU =     1613.731 (sec) -------------
Step     =          10400 Temp     =       299.3279 Press    =       527.0227 
c_born[1] =    886220.8942 f_avborn[1] =    886702.9023 c_born[12] =    176355.3898 
f_avborn[12] =    175383.3965 c_born[4] =    348924.3651 f_avborn[4] =    348023.4560
------------ Step          10500 ----- CPU =     1629.129 (sec) -------------
Step     =          10500 Temp     =       295.9254 Press    =      -184.8118 
c_born[1] =    888424.9939 f_avborn[1] =    886724.9086 c_born[12] =    177653.0109 
f_avborn[12] =    175396.2780 c_born[4] =    350547.7223 f_avborn[4] =    348035.0438
------------ Step          10600 ----- CPU =     1644.347 (sec) -------------
Step     =          10600 Temp     =       302.0174 Press    =     -1402.5888 
c_born[1] =    892067.4132 f_avborn[1] =    886770.4421 c_born[12] =    177042.1580 
f_avborn[12] =    175414.8651 c_born[4] =    349166.0834 f_avborn[4] =    348052.0546
------------ Step          10700 ----- CPU =     1659.666 (sec) -------------
Step     =          10700 Temp     =       300.6746 Press    =      1208.0823 
c_born[1] =    894256.9074 f_avborn[1] =    886753.0486 c_born[12] =    177869.3016 
f_avborn[12] =    175443.5043 c_born[4] =    349877.1737 f_avborn[4] =    348081.8664
------------ Step          10800 ----- CPU =     1674.931 (sec) -------------
Step     =          10800 Temp     =       294.7176 Press    =      1508.4671 
c_born[1] =    885298.6285 f_avborn[1] =    886780.8889 c_born[12] =    178385.2736 
f_avborn[12] =    175467.1669 c_born[4] =    351179.6354 f_avborn[4] =    348101.9753
------------ Step          10900 ----- CPU =     1690.243 (sec) -------------
Step     =          10900 Temp     =       298.4601 Press    =      1639.9511 
c_born[1] =    887563.6726 f_avborn[1] =    886800.7500 c_born[12] =    178382.2649 
f_avborn[12] =    175484.2342 c_born[4] =    351121.0853 f_avborn[4] =    348117.0290
------------ Step          11000 ----- CPU =     1705.695 (sec) -------------
Step     =          11000 Temp     =       306.8810 Press    =      -801.7717 
c_born[1] =    882868.1489 f_avborn[1] =    886768.9965 c_born[12] =    176443.7402 
f_avborn[12] =    175497.8598 c_born[4] =    348741.9261 f_avborn[4] =    348131.3690
------------ Step          11100 ----- CPU =     1721.026 (sec) -------------
Step     =          11100 Temp     =       300.3695 Press    =        67.6579 
c_born[1] =    891813.8959 f_avborn[1] =    886748.1339 c_born[12] =    177790.9784 
f_avborn[12] =    175519.6767 c_born[4] =    349944.1293 f_avborn[4] =    348153.0623
------------ Step          11200 ----- CPU =     1736.267 (sec) -------------
Step     =          11200 Temp     =       298.4788 Press    =      -223.9249 
c_born[1] =    888007.1866 f_avborn[1] =    886806.0338 c_born[12] =    176124.3619 
f_avborn[12] =    175520.7121 c_born[4] =    349415.0218 f_avborn[4] =    348148.3178
------------ Step          11300 ----- CPU =     1751.684 (sec) -------------
Step     =          11300 Temp     =       296.2149 Press    =       754.4684 
c_born[1] =    884562.7565 f_avborn[1] =    886831.1849 c_born[12] =    176142.1899 
f_avborn[12] =    175512.6168 c_born[4] =    348972.5750 f_avborn[4] =    348143.1680
------------ Step          11400 ----- CPU =     1766.992 (sec) -------------
Step     =          11400 Temp     =       292.3966 Press    =       639.7529 
c_born[1] =    880605.2469 f_avborn[1] =    886757.9490 c_born[12] =    176959.0534 
f_avborn[12] =    175525.2249 c_born[4] =    350319.8142 f_avborn[4] =    348166.3091
------------ Step          11500 ----- CPU =      1782.54 (sec) -------------
Step     =          11500 Temp     =       296.2275 Press    =      1497.2060 
c_born[1] =    891507.1465 f_avborn[1] =    886747.8274 c_born[12] =    176026.3797 
f_avborn[12] =    175533.2387 c_born[4] =    348090.4523 f_avborn[4] =    348176.3906
------------ Step          11600 ----- CPU =     1797.843 (sec) -------------
Step     =          11600 Temp     =       299.1017 Press    =       392.6043 
c_born[1] =    882479.9318 f_avborn[1] =    886715.4967 c_born[12] =    175478.7586 
f_avborn[12] =    175533.4156 c_born[4] =    348980.9969 f_avborn[4] =    348180.9669
------------ Step          11700 ----- CPU =     1813.174 (sec) -------------
Step     =          11700 Temp     =       308.9192 Press    =       698.4900 
c_born[1] =    896612.5283 f_avborn[1] =    886747.9735 c_born[12] =    176880.2206 
f_avborn[12] =    175539.3646 c_born[4] =    349359.4091 f_avborn[4] =    348188.3580
------------ Step          11800 ----- CPU =      1828.41 (sec) -------------
Step     =          11800 Temp     =       298.0588 Press    =     -1891.5005 
c_born[1] =    883724.8661 f_avborn[1] =    886807.6072 c_born[12] =    176846.9516 
f_avborn[12] =    175552.6796 c_born[4] =    349793.0101 f_avborn[4] =    348197.8720
------------ Step          11900 ----- CPU =     1845.109 (sec) -------------
Step     =          11900 Temp     =       300.2699 Press    =      -160.6877 
c_born[1] =    888711.6488 f_avborn[1] =    886793.0640 c_born[12] =    175817.3319 
f_avborn[12] =    175564.2393 c_born[4] =    347848.6065 f_avborn[4] =    348211.5735
------------ Step          12000 ----- CPU =     1860.622 (sec) -------------
Step     =          12000 Temp     =       290.7873 Press    =         1.3695 
c_born[1] =    875627.9453 f_avborn[1] =    886736.6487 c_born[12] =    175410.7973 
f_avborn[12] =    175569.1544 c_born[4] =    349133.9428 f_avborn[4] =    348220.6160
------------ Step          12100 ----- CPU =     1876.104 (sec) -------------
Step     =          12100 Temp     =       304.2301 Press    =      1666.2337 
c_born[1] =    891075.0028 f_avborn[1] =    886745.8800 c_born[12] =    174108.6348 
f_avborn[12] =    175568.4191 c_born[4] =    346760.2201 f_avborn[4] =    348222.8150
------------ Step          12200 ----- CPU =     1891.336 (sec) -------------
Step     =          12200 Temp     =       303.9797 Press    =      -746.5658 
c_born[1] =    892250.3518 f_avborn[1] =    886770.3653 c_born[12] =    174424.2299 
f_avborn[12] =    175563.9276 c_born[4] =    346627.3168 f_avborn[4] =    348216.1515
------------ Step          12300 ----- CPU =     1906.559 (sec) -------------
Step     =          12300 Temp     =       302.7894 Press    =      -170.1326 
c_born[1] =    886785.2253 f_avborn[1] =    886826.5880 c_born[12] =    175256.7290 
f_avborn[12] =    175557.1109 c_born[4] =    347695.8242 f_avborn[4] =    348199.5594
------------ Step          12400 ----- CPU =     1921.915 (sec) -------------
Step     =          12400 Temp     =       296.8198 Press    =      -356.3321 
c_born[1] =    889070.6609 f_avborn[1] =    886859.4583 c_born[12] =    176334.8789 
f_avborn[12] =    175564.0788 c_born[4] =    348486.6597 f_avborn[4] =    348201.9279
------------ Step          12500 ----- CPU =     1937.544 (sec) -------------
Step     =          12500 Temp     =       300.4577 Press    =       873.9383 
c_born[1] =    888920.1281 f_avborn[1] =    886910.4901 c_born[12] =    173205.6398 
f_avborn[12] =    175559.9000 c_born[4] =    345570.5183 f_avborn[4] =    348190.4531
------------ Step          12600 ----- CPU =     1952.722 (sec) -------------
Step     =          12600 Temp     =       298.8890 Press    =       457.5047 
c_born[1] =    885541.4250 f_avborn[1] =    886936.9416 c_born[12] =    176204.4731 
f_avborn[12] =    175552.4828 c_born[4] =    349065.8372 f_avborn[4] =    348180.8616
------------ Step          12700 ----- CPU =     1968.063 (sec) -------------
Step     =          12700 Temp     =       296.0210 Press    =      1162.3883 
c_born[1] =    887406.6020 f_avborn[1] =    886946.3535 c_born[12] =    175907.7304 
f_avborn[12] =    175548.8473 c_born[4] =    347178.5732 f_avborn[4] =    348171.5001
------------ Step          12800 ----- CPU =     1983.309 (sec) -------------
Step     =          12800 Temp     =       298.4158 Press    =       335.2548 
c_born[1] =    890198.7903 f_avborn[1] =    886968.6062 c_born[12] =    175299.7992 
f_avborn[12] =    175531.9773 c_born[4] =    346641.6288 f_avborn[4] =    348145.8723
------------ Step          12900 ----- CPU =     1998.503 (sec) -------------
Step     =          12900 Temp     =       305.1429 Press    =     -1131.5399 
c_born[1] =    894920.3474 f_avborn[1] =    886974.4285 c_born[12] =    174983.4464 
f_avborn[12] =    175526.0694 c_born[4] =    346508.9521 f_avborn[4] =    348135.9324
------------ Step          13000 ----- CPU =     2013.713 (sec) -------------
Step     =          13000 Temp     =       301.4104 Press    =      -144.0203 
c_born[1] =    889974.9975 f_avborn[1] =    887005.4337 c_born[12] =    172470.9147 
f_avborn[12] =    175516.4171 c_born[4] =    344499.8024 f_avborn[4] =    348120.5058
------------ Step          13100 ----- CPU =      2029.11 (sec) -------------
Step     =          13100 Temp     =       302.5004 Press    =      -784.2613 
c_born[1] =    890389.5964 f_avborn[1] =    887007.1067 c_born[12] =    172735.3899 
f_avborn[12] =    175509.7034 c_born[4] =    343505.1683 f_avborn[4] =    348108.2460
------------ Step          13200 ----- CPU =     2044.575 (sec) -------------
Step     =          13200 Temp     =       297.4623 Press    =       147.6963 
c_born[1] =    890727.2005 f_avborn[1] =    887017.5090 c_born[12] =    173629.2368 
f_avborn[12] =    175500.2701 c_born[4] =    346184.0211 f_avborn[4] =    348094.0793
------------ Step          13300 ----- CPU =     2059.923 (sec) -------------
Step     =          13300 Temp     =       296.4141 Press    =       821.4050 
c_born[1] =    888330.3660 f_avborn[1] =    887058.4849 c_born[12] =    174377.4675 
f_avborn[12] =    175490.1656 c_born[4] =    347565.1111 f_avborn[4] =    348080.5422
------------ Step          13400 ----- CPU =      2075.22 (sec) -------------
Step     =          13400 Temp     =       302.0316 Press    =       724.7916 
c_born[1] =    889217.2501 f_avborn[1] =    887054.9710 c_born[12] =    174870.6885 
f_avborn[12] =    175486.5617 c_born[4] =    347530.6696 f_avborn[4] =    348083.0121
------------ Step          13500 ----- CPU =     2090.402 (sec) -------------
Step     =          13500 Temp     =       297.3303 Press    =       500.9305 
c_born[1] =    886405.6221 f_avborn[1] =    887082.6399 c_born[12] =    175347.8321 
f_avborn[12] =    175481.3916 c_born[4] =    348048.8218 f_avborn[4] =    348077.4556
------------ Step          13600 ----- CPU =     2105.663 (sec) -------------
Step     =          13600 Temp     =       297.5191 Press    =      -572.9140 
c_born[1] =    880497.1792 f_avborn[1] =    887063.9346 c_born[12] =    176835.2134 
f_avborn[12] =    175486.0102 c_born[4] =    349896.5184 f_avborn[4] =    348081.9184
------------ Step          13700 ----- CPU =     2120.853 (sec) -------------
Step     =          13700 Temp     =       296.8752 Press    =      -491.4634 
c_born[1] =    883061.6963 f_avborn[1] =    887042.5484 c_born[12] =    177426.7964 
f_avborn[12] =    175494.9736 c_born[4] =    350012.3750 f_avborn[4] =    348093.0494
------------ Step          13800 ----- CPU =     2136.191 (sec) -------------
Step     =          13800 Temp     =       301.5455 Press    =      -755.2337 
c_born[1] =    882421.8013 f_avborn[1] =    887016.6001 c_born[12] =    175195.3970 
f_avborn[12] =    175497.4167 c_born[4] =    348078.6519 f_avborn[4] =    348096.7838
------------ Step          13900 ----- CPU =     2151.756 (sec) -------------
Step     =          13900 Temp     =       301.6783 Press    =      1389.4442 
c_born[1] =    878255.2649 f_avborn[1] =    886972.6472 c_born[12] =    176825.2128 
f_avborn[12] =    175499.1098 c_born[4] =    350528.4581 f_avborn[4] =    348106.8192
------------ Step          14000 ----- CPU =     2167.017 (sec) -------------
Step     =          14000 Temp     =       307.1966 Press    =       -55.9491 
c_born[1] =    883166.0336 f_avborn[1] =    886942.7619 c_born[12] =    175609.7382 
f_avborn[12] =    175496.5423 c_born[4] =    348722.3189 f_avborn[4] =    348107.1629
------------ Step          14100 ----- CPU =     2182.239 (sec) -------------
Step     =          14100 Temp     =       299.2452 Press    =      1642.4469 
c_born[1] =    895661.2048 f_avborn[1] =    886958.7425 c_born[12] =    175402.2640 
f_avborn[12] =    175491.2654 c_born[4] =    347263.8198 f_avborn[4] =    348101.3602
------------ Step          14200 ----- CPU =     2197.588 (sec) -------------
Step     =          14200 Temp     =       294.3866 Press    =       743.9378 
c_born[1] =    887408.0506 f_avborn[1] =    886980.2383 c_born[12] =    172813.2919 
f_avborn[12] =    175486.9010 c_born[4] =    345907.5425 f_avborn[4] =    348097.7593
------------ Step          14300 ----- CPU =     2212.826 (sec) -------------
Step     =          14300 Temp     =       295.3151 Press    =      -555.6355 
c_born[1] =    890122.0579 f_avborn[1] =    886959.8018 c_born[12] =    178751.5755 
f_avborn[12] =    175495.5957 c_born[4] =    351084.0043 f_avborn[4] =    348111.3457
------------ Step          14400 ----- CPU =     2228.215 (sec) -------------
Step     =          14400 Temp     =       286.4690 Press    =      -114.5371 
c_born[1] =    883578.2234 f_avborn[1] =    886942.3701 c_born[12] =    175896.4647 
f_avborn[12] =    175505.5221 c_born[4] =    348914.7282 f_avborn[4] =    348125.2202
------------ Step          14500 ----- CPU =      2243.39 (sec) -------------
Step     =          14500 Temp     =       300.9720 Press    =       666.9820 
c_born[1] =    888846.1054 f_avborn[1] =    886944.3691 c_born[12] =    176603.8624 
f_avborn[12] =    175510.7073 c_born[4] =    349073.9553 f_avborn[4] =    348131.5483
------------ Step          14600 ----- CPU =     2258.652 (sec) -------------
Step     =          14600 Temp     =       298.4663 Press    =       935.4061 
c_born[1] =    887084.2480 f_avborn[1] =    886923.0938 c_born[12] =    177837.8862 
f_avborn[12] =    175525.3504 c_born[4] =    350532.7714 f_avborn[4] =    348148.5073
------------ Step          14700 ----- CPU =     2273.873 (sec) -------------
Step     =          14700 Temp     =       298.4004 Press    =     -1443.2708 
c_born[1] =    888677.3525 f_avborn[1] =    886935.4646 c_born[12] =    180267.3076 
f_avborn[12] =    175550.6240 c_born[4] =    352735.0944 f_avborn[4] =    348172.1708
------------ Step          14800 ----- CPU =     2289.052 (sec) -------------
Step     =          14800 Temp     =       306.9969 Press    =       138.0375 
c_born[1] =    892696.9018 f_avborn[1] =    886933.6636 c_born[12] =    176391.3900 
f_avborn[12] =    175562.5893 c_born[4] =    348647.0911 f_avborn[4] =    348184.7058
------------ Step          14900 ----- CPU =     2304.253 (sec) -------------
Step     =          14900 Temp     =       298.3218 Press    =      1397.2781 
c_born[1] =    894234.2887 f_avborn[1] =    886956.9876 c_born[12] =    174555.0764 
f_avborn[12] =    175566.8498 c_born[4] =    346668.6410 f_avborn[4] =    348190.9028
------------ Step          15000 ----- CPU =     2319.626 (sec) -------------
Step     =          15000 Temp     =       299.3516 Press    =      1122.6548 
c_born[1] =    902780.6384 f_avborn[1] =    886982.4657 c_born[12] =    176758.6334 
f_avborn[12] =    175572.6286 c_born[4] =    348621.5633 f_avborn[4] =    348196.3926
------------ Step          15100 ----- CPU =     2335.541 (sec) -------------
Step     =          15100 Temp     =       295.0113 Press    =       308.0419 
c_born[1] =    888085.9275 f_avborn[1] =    887020.0297 c_born[12] =    175902.3085 
f_avborn[12] =    175582.5631 c_born[4] =    348313.5215 f_avborn[4] =    348204.2579
------------ Step          15200 ----- CPU =     2350.797 (sec) -------------
Step     =          15200 Temp     =       300.3912 Press    =       689.7943 
c_born[1] =    881312.6207 f_avborn[1] =    887053.0484 c_born[12] =    176583.3657 
f_avborn[12] =    175581.4417 c_born[4] =    349833.5697 f_avborn[4] =    348199.0957
------------ Step          15300 ----- CPU =     2366.001 (sec) -------------
Step     =          15300 Temp     =       302.0610 Press    =      3998.0913 
c_born[1] =    891404.5287 f_avborn[1] =    887066.4446 c_born[12] =    173041.6064 
f_avborn[12] =    175571.9092 c_born[4] =    345559.4091 f_avborn[4] =    348190.6094
------------ Step          15400 ----- CPU =     2381.298 (sec) -------------
Step     =          15400 Temp     =       304.9332 Press    =      3515.9660 
c_born[1] =    886888.7818 f_avborn[1] =    887070.4498 c_born[12] =    174507.1838 
f_avborn[12] =    175554.8567 c_born[4] =    346711.9356 f_avborn[4] =    348171.8129
------------ Step          15500 ----- CPU =     2396.497 (sec) -------------
Step     =          15500 Temp     =       295.7240 Press    =      1568.1814 
c_born[1] =    887091.7996 f_avborn[1] =    887085.1432 c_born[12] =    171787.5635 
f_avborn[12] =    175543.1423 c_born[4] =    344840.1913 f_avborn[4] =    348157.8876
------------ Step          15600 ----- CPU =     2411.803 (sec) -------------
Step     =          15600 Temp     =       297.4140 Press    =      -735.4749 
c_born[1] =    894030.4328 f_avborn[1] =    887104.0532 c_born[12] =    173594.4887 
f_avborn[12] =    175518.1607 c_born[4] =    345909.2030 f_avborn[4] =    348134.5583
------------ Step          15700 ----- CPU =     2427.056 (sec) -------------
Step     =          15700 Temp     =       299.5656 Press    =       433.3318 
c_born[1] =    883122.8277 f_avborn[1] =    887126.3411 c_born[12] =    173750.9763 
f_avborn[12] =    175502.5949 c_born[4] =    346788.6315 f_avborn[4] =    348118.1393
------------ Step          15800 ----- CPU =     2443.141 (sec) -------------
Step     =          15800 Temp     =       305.9853 Press    =      1894.9003 
c_born[1] =    885869.8626 f_avborn[1] =    887121.9792 c_born[12] =    174730.8595 
f_avborn[12] =    175495.1768 c_born[4] =    347057.1782 f_avborn[4] =    348111.8019
------------ Step          15900 ----- CPU =     2458.659 (sec) -------------
Step     =          15900 Temp     =       305.5838 Press    =       -18.3585 
c_born[1] =    891592.1092 f_avborn[1] =    887163.3239 c_born[12] =    174145.2466 
f_avborn[12] =    175481.9730 c_born[4] =    346629.6470 f_avborn[4] =    348097.9168
------------ Step          16000 ----- CPU =     2473.955 (sec) -------------
Step     =          16000 Temp     =       302.1873 Press    =      2860.5150 
c_born[1] =    886365.5402 f_avborn[1] =    887134.5537 c_born[12] =    173481.8529 
f_avborn[12] =    175473.6637 c_born[4] =    346591.1865 f_avborn[4] =    348095.0363
------------ Step          16100 ----- CPU =     2489.153 (sec) -------------
Step     =          16100 Temp     =       298.1218 Press    =      1259.4888 
c_born[1] =    889880.6474 f_avborn[1] =    887134.7811 c_born[12] =    171353.0704 
f_avborn[12] =    175460.9820 c_born[4] =    343683.8351 f_avborn[4] =    348083.5452
------------ Step          16200 ----- CPU =     2504.418 (sec) -------------
Step     =          16200 Temp     =       295.9781 Press    =      1895.7059 
c_born[1] =    893834.6515 f_avborn[1] =    887140.1330 c_born[12] =    174785.1018 
f_avborn[12] =    175443.3575 c_born[4] =    346608.4616 f_avborn[4] =    348068.0767
------------ Step          16300 ----- CPU =     2519.645 (sec) -------------
Step     =          16300 Temp     =       302.8927 Press    =       701.4415 
c_born[1] =    883768.1635 f_avborn[1] =    887139.6815 c_born[12] =    174786.9869 
f_avborn[12] =    175430.1547 c_born[4] =    347657.3588 f_avborn[4] =    348055.1497
------------ Step          16400 ----- CPU =     2534.931 (sec) -------------
Step     =          16400 Temp     =       301.5932 Press    =      1644.6685 
c_born[1] =    891799.0232 f_avborn[1] =    887118.8893 c_born[12] =    174904.1577 
f_avborn[12] =    175432.5216 c_born[4] =    346712.2280 f_avborn[4] =    348057.8515
------------ Step          16500 ----- CPU =     2550.153 (sec) -------------
Step     =          16500 Temp     =       305.5138 Press    =      1766.3274 
c_born[1] =    891129.8639 f_avborn[1] =    887135.0831 c_born[12] =    178107.0129 
f_avborn[12] =    175433.1258 c_born[4] =    349410.9390 f_avborn[4] =    348054.0979
------------ Step          16600 ----- CPU =     2565.487 (sec) -------------
Step     =          16600 Temp     =       300.6002 Press    =       655.3895 
c_born[1] =    876879.1681 f_avborn[1] =    887119.3850 c_born[12] =    173982.8400 
f_avborn[12] =    175430.8536 c_born[4] =    347467.8634 f_avborn[4] =    348049.5574
------------ Step          16700 ----- CPU =     2580.777 (sec) -------------
Step     =          16700 Temp     =       301.2514 Press    =      1207.0691 
c_born[1] =    885854.6227 f_avborn[1] =    887120.6607 c_born[12] =    171826.6167 
f_avborn[12] =    175420.9887 c_born[4] =    343790.3510 f_avborn[4] =    348038.8445
------------ Step          16800 ----- CPU =     2595.959 (sec) -------------
Step     =          16800 Temp     =       300.7428 Press    =       112.7243 
c_born[1] =    884767.4087 f_avborn[1] =    887118.2119 c_born[12] =    174060.8068 
f_avborn[12] =    175410.5399 c_born[4] =    346255.7908 f_avborn[4] =    348025.6850
------------ Step          16900 ----- CPU =      2611.15 (sec) -------------
Step     =          16900 Temp     =       294.7858 Press    =      1542.3105 
c_born[1] =    887154.5908 f_avborn[1] =    887118.4300 c_born[12] =    176223.3483 
f_avborn[12] =    175409.8903 c_born[4] =    348271.1221 f_avborn[4] =    348021.3212
------------ Step          17000 ----- CPU =     2626.359 (sec) -------------
Step     =          17000 Temp     =       299.0235 Press    =      1897.8504 
c_born[1] =    891244.1175 f_avborn[1] =    887156.3581 c_born[12] =    176162.7135 
f_avborn[12] =    175412.6426 c_born[4] =    347935.0600 f_avborn[4] =    348018.1043
------------ Step          17100 ----- CPU =     2641.562 (sec) -------------
Step     =          17100 Temp     =       298.5801 Press    =      1601.1774 
c_born[1] =    885440.0789 f_avborn[1] =    887149.6038 c_born[12] =    173767.0356 
f_avborn[12] =    175419.2221 c_born[4] =    345686.3127 f_avborn[4] =    348022.3966
------------ Step          17200 ----- CPU =     2656.816 (sec) -------------
Step     =          17200 Temp     =       294.2216 Press    =       329.8722 
c_born[1] =    885635.4943 f_avborn[1] =    887151.6853 c_born[12] =    175325.1358 
f_avborn[12] =    175413.3041 c_born[4] =    347269.7526 f_avborn[4] =    348013.0992
------------ Step          17300 ----- CPU =     2672.006 (sec) -------------
Step     =          17300 Temp     =       306.2192 Press    =       513.1128 
c_born[1] =    885041.1586 f_avborn[1] =    887153.2941 c_born[12] =    175878.6478 
f_avborn[12] =    175409.1983 c_born[4] =    348351.4234 f_avborn[4] =    348006.8787
------------ Step          17400 ----- CPU =     2687.542 (sec) -------------
Step     =          17400 Temp     =       305.1715 Press    =      1915.2823 
c_born[1] =    890958.5950 f_avborn[1] =    887136.9687 c_born[12] =    176434.7102 
f_avborn[12] =    175416.4643 c_born[4] =    348766.4932 f_avborn[4] =    348013.4465
------------ Step          17500 ----- CPU =     2702.866 (sec) -------------
Step     =          17500 Temp     =       297.2822 Press    =      -978.0853 
c_born[1] =    876256.3853 f_avborn[1] =    887119.9991 c_born[12] =    176154.4665 
f_avborn[12] =    175420.6111 c_born[4] =    350007.8114 f_avborn[4] =    348019.8385
------------ Step          17600 ----- CPU =     2718.126 (sec) -------------
Step     =          17600 Temp     =       293.4951 Press    =      -763.3524 
c_born[1] =    877378.8825 f_avborn[1] =    887053.3421 c_born[12] =    174495.5232 
f_avborn[12] =    175419.8722 c_born[4] =    347516.3796 f_avborn[4] =    348022.4948
------------ Step          17700 ----- CPU =     2733.457 (sec) -------------
Step     =          17700 Temp     =       295.7319 Press    =      1136.5475 
c_born[1] =    889211.8604 f_avborn[1] =    887040.3277 c_born[12] =    172586.1197 
f_avborn[12] =    175409.3543 c_born[4] =    344251.6921 f_avborn[4] =    348009.8153
------------ Step          17800 ----- CPU =     2748.935 (sec) -------------
Step     =          17800 Temp     =       301.1081 Press    =       516.9148 
c_born[1] =    877158.5253 f_avborn[1] =    887015.2701 c_born[12] =    172979.9638 
f_avborn[12] =    175399.0251 c_born[4] =    346304.7281 f_avborn[4] =    347999.2308
------------ Step          17900 ----- CPU =     2764.208 (sec) -------------
Step     =          17900 Temp     =       313.4735 Press    =       487.9526 
c_born[1] =    886936.5380 f_avborn[1] =    887004.6428 c_born[12] =    173005.1708 
f_avborn[12] =    175378.9738 c_born[4] =    345654.8359 f_avborn[4] =    347978.8254
------------ Step          18000 ----- CPU =     2779.548 (sec) -------------
Step     =          18000 Temp     =       300.7614 Press    =      2803.9447 
c_born[1] =    880773.3490 f_avborn[1] =    886996.3325 c_born[12] =    174998.7082 
f_avborn[12] =    175366.4140 c_born[4] =    347969.4352 f_avborn[4] =    347967.2471
------------ Step          18100 ----- CPU =     2794.858 (sec) -------------
Step     =          18100 Temp     =       296.9669 Press    =     -1202.6159 
c_born[1] =    876431.4249 f_avborn[1] =    886972.4211 c_born[12] =    174104.8539 
f_avborn[12] =    175370.5105 c_born[4] =    348349.6739 f_avborn[4] =    347974.8658
------------ Step          18200 ----- CPU =     2810.111 (sec) -------------
Step     =          18200 Temp     =       293.0731 Press    =      1906.3665 
c_born[1] =    888641.5818 f_avborn[1] =    886941.4214 c_born[12] =    175905.2031 
f_avborn[12] =    175375.5949 c_born[4] =    348183.8751 f_avborn[4] =    347982.4102
------------ Step          18300 ----- CPU =     2825.563 (sec) -------------
Step     =          18300 Temp     =       298.0014 Press    =       944.9872 
c_born[1] =    881633.7729 f_avborn[1] =    886959.9367 c_born[12] =    175055.6686 
f_avborn[12] =    175377.0886 c_born[4] =    347955.9949 f_avborn[4] =    347984.3656
------------ Step          18400 ----- CPU =     2840.846 (sec) -------------
Step     =          18400 Temp     =       303.8621 Press    =       721.1038 
c_born[1] =    883814.9638 f_avborn[1] =    886940.9818 c_born[12] =    174233.0898 
f_avborn[12] =    175370.4854 c_born[4] =    347156.1719 f_avborn[4] =    347978.4709
------------ Step          18500 ----- CPU =     2856.356 (sec) -------------
Step     =          18500 Temp     =       297.8428 Press    =      1448.5198 
c_born[1] =    886045.1409 f_avborn[1] =    886931.5145 c_born[12] =    175510.9110 
f_avborn[12] =    175365.9060 c_born[4] =    347545.1439 f_avborn[4] =    347973.3114
------------ Step          18600 ----- CPU =     2871.359 (sec) -------------
Step     =          18600 Temp     =       294.5925 Press    =      2637.4712 
c_born[1] =    884657.7281 f_avborn[1] =    886910.3511 c_born[12] =    177328.2750 
f_avborn[12] =    175369.5193 c_born[4] =    350181.1627 f_avborn[4] =    347978.1278
------------ Step          18700 ----- CPU =     2886.634 (sec) -------------
Step     =          18700 Temp     =       303.4694 Press    =      -302.7863 
c_born[1] =    881991.7286 f_avborn[1] =    886864.6769 c_born[12] =    175454.2226 
f_avborn[12] =    175380.8557 c_born[4] =    348228.0354 f_avborn[4] =    347994.2960
------------ Step          18800 ----- CPU =     2901.897 (sec) -------------
Step     =          18800 Temp     =       296.9968 Press    =      -365.2111 
c_born[1] =    881905.9763 f_avborn[1] =    886861.7953 c_born[12] =    175079.6128 
f_avborn[12] =    175377.7705 c_born[4] =    348236.5714 f_avborn[4] =    347990.1912
------------ Step          18900 ----- CPU =     2919.541 (sec) -------------
Step     =          18900 Temp     =       299.4006 Press    =      2470.2135 
c_born[1] =    882851.4163 f_avborn[1] =    886835.4961 c_born[12] =    175744.9297 
f_avborn[12] =    175375.4078 c_born[4] =    347748.4517 f_avborn[4] =    347987.9901
------------ Step          19000 ----- CPU =     2934.941 (sec) -------------
Step     =          19000 Temp     =       302.9772 Press    =       521.4930 
c_born[1] =    880332.9312 f_avborn[1] =    886803.5278 c_born[12] =    174160.8412 
f_avborn[12] =    175370.0036 c_born[4] =    346955.9175 f_avborn[4] =    347982.5311
------------ Step          19100 ----- CPU =     2950.212 (sec) -------------
Step     =          19100 Temp     =       304.2837 Press    =        49.5504 
c_born[1] =    886348.3726 f_avborn[1] =    886792.7683 c_born[12] =    178128.6064 
f_avborn[12] =    175373.1719 c_born[4] =    350316.8335 f_avborn[4] =    347983.8096
------------ Step          19200 ----- CPU =     2965.438 (sec) -------------
Step     =          19200 Temp     =       302.1214 Press    =      2021.0961 
c_born[1] =    885082.2535 f_avborn[1] =    886754.7451 c_born[12] =    175465.6106 
f_avborn[12] =    175381.9030 c_born[4] =    347641.8135 f_avborn[4] =    347994.7592
------------ Step          19300 ----- CPU =     2980.752 (sec) -------------
Step     =          19300 Temp     =       301.5353 Press    =      2785.2121 
c_born[1] =    879231.2179 f_avborn[1] =    886721.2983 c_born[12] =    175433.5557 
f_avborn[12] =    175388.8943 c_born[4] =    347917.6616 f_avborn[4] =    348002.2449
------------ Step          19400 ----- CPU =     2995.939 (sec) -------------
Step     =          19400 Temp     =       291.7624 Press    =       877.6868 
c_born[1] =    883594.9634 f_avborn[1] =    886705.2467 c_born[12] =    173416.0434 
f_avborn[12] =    175382.3375 c_born[4] =    345798.4224 f_avborn[4] =    347995.3764
------------ Step          19500 ----- CPU =     3011.212 (sec) -------------
Step     =          19500 Temp     =       296.5169 Press    =      1640.7050 
c_born[1] =    888464.0087 f_avborn[1] =    886707.1890 c_born[12] =    172749.8577 
f_avborn[12] =    175373.8068 c_born[4] =    344519.5690 f_avborn[4] =    347983.3579
------------ Step          19600 ----- CPU =     3026.341 (sec) -------------
Step     =          19600 Temp     =       297.9989 Press    =     -1805.7075 
c_born[1] =    891068.6567 f_avborn[1] =    886716.1131 c_born[12] =    174274.1756 
f_avborn[12] =    175365.0739 c_born[4] =    346049.8513 f_avborn[4] =    347971.2426
------------ Step          19700 ----- CPU =     3042.372 (sec) -------------
Step     =          19700 Temp     =       299.2356 Press    =      -360.3396 
c_born[1] =    880804.7235 f_avborn[1] =    886719.2189 c_born[12] =    172861.3220 
f_avborn[12] =    175356.7657 c_born[4] =    345923.7652 f_avborn[4] =    347963.0532
------------ Step          19800 ----- CPU =     3058.789 (sec) -------------
Step     =          19800 Temp     =       303.0494 Press    =      2037.0298 
c_born[1] =    887975.5149 f_avborn[1] =    886705.7328 c_born[12] =    175823.7036 
f_avborn[12] =    175355.5205 c_born[4] =    347637.1222 f_avborn[4] =    347960.9926
------------ Step          19900 ----- CPU =     3074.011 (sec) -------------
Step     =          19900 Temp     =       304.9072 Press    =       476.3562 
c_born[1] =    879965.7736 f_avborn[1] =    886667.9903 c_born[12] =    173786.4214 
f_avborn[12] =    175354.0046 c_born[4] =    346506.0337 f_avborn[4] =    347959.7324
------------ Step          20000 ----- CPU =     3089.172 (sec) -------------
Step     =          20000 Temp     =       299.7721 Press    =       725.9267 
c_born[1] =    897882.2613 f_avborn[1] =    886675.8003 c_born[12] =    174690.5038 
f_avborn[12] =    175347.2406 c_born[4] =    345969.0271 f_avborn[4] =    347950.5710
------------ Step          20100 ----- CPU =     3104.348 (sec) -------------
Step     =          20100 Temp     =       297.6523 Press    =       966.1898 
c_born[1] =    901865.6595 f_avborn[1] =    886724.3400 c_born[12] =    172696.9539 
f_avborn[12] =    175339.0602 c_born[4] =    344774.1409 f_avborn[4] =    347938.2391
------------ Step          20200 ----- CPU =     3119.585 (sec) -------------
Step     =          20200 Temp     =       289.5054 Press    =      -241.0572 
c_born[1] =    881984.5521 f_avborn[1] =    886725.8672 c_born[12] =    173303.2761 
f_avborn[12] =    175326.4106 c_born[4] =    346474.7891 f_avborn[4] =    347927.1406
------------ Step          20300 ----- CPU =     3134.814 (sec) -------------
Step     =          20300 Temp     =       292.5985 Press    =       506.2210 
c_born[1] =    882690.0729 f_avborn[1] =    886709.7799 c_born[12] =    173127.1864 
f_avborn[12] =    175315.7582 c_born[4] =    346002.8614 f_avborn[4] =    347917.4086
------------ Step          20400 ----- CPU =     3149.989 (sec) -------------
Step     =          20400 Temp     =       298.4606 Press    =      1496.4766 
c_born[1] =    888921.4671 f_avborn[1] =    886700.3146 c_born[12] =    175523.2090 
f_avborn[12] =    175306.2971 c_born[4] =    347621.8289 f_avborn[4] =    347907.9851
------------ Step          20500 ----- CPU =     3165.195 (sec) -------------
Step     =          20500 Temp     =       304.8077 Press    =      1423.9064 
c_born[1] =    897679.3134 f_avborn[1] =    886708.4808 c_born[12] =    171923.1602 
f_avborn[12] =    175301.0066 c_born[4] =    343317.7661 f_avborn[4] =    347901.7325
------------ Step          20600 ----- CPU =      3180.65 (sec) -------------
Step     =          20600 Temp     =       298.9552 Press    =      3040.9767 
c_born[1] =    884317.3667 f_avborn[1] =    886701.7855 c_born[12] =    171607.8265 
f_avborn[12] =    175286.8539 c_born[4] =    344214.2090 f_avborn[4] =    347888.7887
------------ Step          20700 ----- CPU =     3195.895 (sec) -------------
Step     =          20700 Temp     =       295.3611 Press    =      2893.3852 
c_born[1] =    884556.1751 f_avborn[1] =    886687.5540 c_born[12] =    174969.5538 
f_avborn[12] =    175280.9011 c_born[4] =    347904.0246 f_avborn[4] =    347885.9179
------------ Step          20800 ----- CPU =     3211.095 (sec) -------------
Step     =          20800 Temp     =       290.5300 Press    =       427.6119 
c_born[1] =    891348.3371 f_avborn[1] =    886704.6362 c_born[12] =    173137.0153 
f_avborn[12] =    175277.1612 c_born[4] =    344876.8568 f_avborn[4] =    347881.3099
------------ Step          20900 ----- CPU =     3226.272 (sec) -------------
Step     =          20900 Temp     =       297.0186 Press    =      1328.6923 
c_born[1] =    887373.1624 f_avborn[1] =    886716.3699 c_born[12] =    173270.8770 
f_avborn[12] =    175270.4340 c_born[4] =    345835.6179 f_avborn[4] =    347872.9447
------------ Step          21000 ----- CPU =     3242.814 (sec) -------------
Step     =          21000 Temp     =       307.4330 Press    =      1103.4050 
c_born[1] =    879975.6997 f_avborn[1] =    886713.2396 c_born[12] =    175369.3887 
f_avborn[12] =    175267.7782 c_born[4] =    348294.1357 f_avborn[4] =    347870.6802
------------ Step          21100 ----- CPU =     3258.899 (sec) -------------
Step     =          21100 Temp     =       306.6535 Press    =       559.9809 
c_born[1] =    881155.3452 f_avborn[1] =    886698.5832 c_born[12] =    174718.0654 
f_avborn[12] =    175271.3293 c_born[4] =    347183.0840 f_avborn[4] =    347875.1157
------------ Step          21200 ----- CPU =     3274.105 (sec) -------------
Step     =          21200 Temp     =       298.6635 Press    =     -1856.0017 
c_born[1] =    890597.0211 f_avborn[1] =    886711.1170 c_born[12] =    172695.3897 
f_avborn[12] =    175257.6650 c_born[4] =    344505.6700 f_avborn[4] =    347858.0342
------------ Step          21300 ----- CPU =     3289.357 (sec) -------------
Step     =          21300 Temp     =       300.6655 Press    =       725.9473 
c_born[1] =    895967.8861 f_avborn[1] =    886742.6331 c_born[12] =    171174.9887 
f_avborn[12] =    175245.8092 c_born[4] =    342496.2067 f_avborn[4] =    347842.0558
------------ Step          21400 ----- CPU =     3305.546 (sec) -------------
Step     =          21400 Temp     =       299.3916 Press    =      -940.5990 
c_born[1] =    886945.6463 f_avborn[1] =    886738.9001 c_born[12] =    172785.1866 
f_avborn[12] =    175232.9242 c_born[4] =    345012.5482 f_avborn[4] =    347828.9438
------------ Step          21500 ----- CPU =     3321.051 (sec) -------------
Step     =          21500 Temp     =       296.7052 Press    =      1450.3347 
c_born[1] =    880991.8225 f_avborn[1] =    886764.6666 c_born[12] =    171157.8385 
f_avborn[12] =    175215.2449 c_born[4] =    343588.8978 f_avborn[4] =    347808.6539
------------ Step          21600 ----- CPU =     3336.643 (sec) -------------
Step     =          21600 Temp     =       307.5593 Press    =      -132.4331 
c_born[1] =    882332.3962 f_avborn[1] =    886742.0038 c_born[12] =    173654.5174 
f_avborn[12] =    175201.8532 c_born[4] =    347538.8581 f_avborn[4] =    347800.1307
------------ Step          21700 ----- CPU =     3352.117 (sec) -------------
Step     =          21700 Temp     =       299.1803 Press    =      -390.0522 
c_born[1] =    881492.9745 f_avborn[1] =    886707.9132 c_born[12] =    175942.9315 
f_avborn[12] =    175201.5006 c_born[4] =    349901.3732 f_avborn[4] =    347806.0450
------------ Step          21800 ----- CPU =     3367.538 (sec) -------------
Step     =          21800 Temp     =       297.5248 Press    =      2223.6321 
c_born[1] =    892824.3930 f_avborn[1] =    886747.4672 c_born[12] =    172120.5541 
f_avborn[12] =    175197.3944 c_born[4] =    344542.0989 f_avborn[4] =    347800.7938
------------ Step          21900 ----- CPU =     3382.852 (sec) -------------
Step     =          21900 Temp     =       290.6306 Press    =      2302.3456 
c_born[1] =    883569.6025 f_avborn[1] =    886768.7830 c_born[12] =    176142.9796 
f_avborn[12] =    175189.7789 c_born[4] =    349389.1307 f_avborn[4] =    347791.9629
------------ Step          22000 ----- CPU =     3398.166 (sec) -------------
Step     =          22000 Temp     =       299.7553 Press    =      1356.0273 
c_born[1] =    891829.1373 f_avborn[1] =    886763.7255 c_born[12] =    176844.3700 
f_avborn[12] =    175196.5583 c_born[4] =    348690.0764 f_avborn[4] =    347799.7647
------------ Step          22100 ----- CPU =      3413.42 (sec) -------------
Step     =          22100 Temp     =       304.2276 Press    =        77.6996 
c_born[1] =    886691.3649 f_avborn[1] =    886767.3666 c_born[12] =    177299.8816 
f_avborn[12] =    175207.3298 c_born[4] =    350266.3794 f_avborn[4] =    347808.9676
------------ Step          22200 ----- CPU =     3428.948 (sec) -------------
Step     =          22200 Temp     =       300.5184 Press    =      2313.7776 
c_born[1] =    887243.4153 f_avborn[1] =    886780.5326 c_born[12] =    177143.8475 
f_avborn[12] =    175211.3738 c_born[4] =    350083.5594 f_avborn[4] =    347813.4964
------------ Step          22300 ----- CPU =      3444.05 (sec) -------------
Step     =          22300 Temp     =       302.5303 Press    =       337.4319 
c_born[1] =    898017.0431 f_avborn[1] =    886787.3706 c_born[12] =    175319.7009 
f_avborn[12] =    175209.4545 c_born[4] =    347628.4206 f_avborn[4] =    347813.5176
------------ Step          22400 ----- CPU =     3459.306 (sec) -------------
Step     =          22400 Temp     =       302.6804 Press    =     -1342.8636 
c_born[1] =    893432.9370 f_avborn[1] =    886822.6380 c_born[12] =    175136.9576 
f_avborn[12] =    175210.2520 c_born[4] =    347875.0834 f_avborn[4] =    347813.4144
------------ Step          22500 ----- CPU =     3474.494 (sec) -------------
Step     =          22500 Temp     =       302.3175 Press    =      -781.7588 
c_born[1] =    888421.8468 f_avborn[1] =    886830.5111 c_born[12] =    175686.5964 
f_avborn[12] =    175207.4021 c_born[4] =    348790.1974 f_avborn[4] =    347812.3083
------------ Step          22600 ----- CPU =     3489.945 (sec) -------------
Step     =          22600 Temp     =       303.8985 Press    =      2123.1005 
c_born[1] =    879632.0395 f_avborn[1] =    886837.0108 c_born[12] =    173655.6995 
f_avborn[12] =    175204.9731 c_born[4] =    347095.4851 f_avborn[4] =    347812.2350
------------ Step          22700 ----- CPU =      3505.15 (sec) -------------
Step     =          22700 Temp     =       309.7102 Press    =      1173.7664 
c_born[1] =    883394.4148 f_avborn[1] =    886815.4734 c_born[12] =    174292.1100 
f_avborn[12] =    175205.2504 c_born[4] =    347701.0622 f_avborn[4] =    347815.8268
------------ Step          22800 ----- CPU =     3520.446 (sec) -------------
Step     =          22800 Temp     =       300.3278 Press    =       925.9759 
c_born[1] =    893555.5748 f_avborn[1] =    886819.0036 c_born[12] =    173632.1036 
[...]
Step     =          96000 Temp     =       299.5105 Press    =      -476.0080 
c_born[1] =    887148.1643 f_avborn[1] =    886117.6875 c_born[12] =    172173.1097 
f_avborn[12] =    176740.0799 c_born[4] =    344702.6144 f_avborn[4] =    349274.1255
------------ Step          96100 ----- CPU =     15209.96 (sec) -------------
Step     =          96100 Temp     =       292.6926 Press    =      -761.0406 
c_born[1] =    888111.8334 f_avborn[1] =    886117.9581 c_born[12] =    172026.9812 
f_avborn[12] =    176736.7733 c_born[4] =    344098.9183 f_avborn[4] =    349270.6459
------------ Step          96200 ----- CPU =      15225.3 (sec) -------------
Step     =          96200 Temp     =       295.7987 Press    =      -155.6568 
c_born[1] =    892185.4895 f_avborn[1] =    886123.2721 c_born[12] =    172989.8443 
f_avborn[12] =    176731.9505 c_born[4] =    345134.6343 f_avborn[4] =    349265.5233
------------ Step          96300 ----- CPU =     15240.78 (sec) -------------
Step     =          96300 Temp     =       303.2521 Press    =      -377.7321 
c_born[1] =    882469.3488 f_avborn[1] =    886120.6302 c_born[12] =    176684.7351 
f_avborn[12] =    176730.8321 c_born[4] =    350102.0236 f_avborn[4] =    349265.0287
------------ Step          96400 ----- CPU =     15256.27 (sec) -------------
Step     =          96400 Temp     =       303.4786 Press    =       788.3047 
c_born[1] =    887727.2032 f_avborn[1] =    886114.7204 c_born[12] =    176109.2191 
f_avborn[12] =    176731.4509 c_born[4] =    349356.0207 f_avborn[4] =    349266.4755
------------ Step          96500 ----- CPU =     15272.02 (sec) -------------
Step     =          96500 Temp     =       303.7449 Press    =     -1675.8447 
c_born[1] =    884140.3496 f_avborn[1] =    886117.1346 c_born[12] =    179937.2929 
f_avborn[12] =    176732.4109 c_born[4] =    352556.1960 f_avborn[4] =    349267.3002
------------ Step          96600 ----- CPU =     15287.84 (sec) -------------
Step     =          96600 Temp     =       298.2502 Press    =     -1568.9216 
c_born[1] =    882679.2474 f_avborn[1] =    886114.7401 c_born[12] =    180194.3216 
f_avborn[12] =    176734.0032 c_born[4] =    353357.8887 f_avborn[4] =    349269.1378
------------ Step          96700 ----- CPU =     15303.26 (sec) -------------
Step     =          96700 Temp     =       296.0447 Press    =      1289.7606 
c_born[1] =    888002.5782 f_avborn[1] =    886115.8746 c_born[12] =    178168.5323 
f_avborn[12] =    176734.4270 c_born[4] =    350657.5263 f_avborn[4] =    349269.7559
------------ Step          96800 ----- CPU =     15318.81 (sec) -------------
Step     =          96800 Temp     =       297.8511 Press    =      -788.6579 
c_born[1] =    897357.6255 f_avborn[1] =    886116.0271 c_born[12] =    174789.0195 
f_avborn[12] =    176733.5191 c_born[4] =    346603.3309 f_avborn[4] =    349268.7296
------------ Step          96900 ----- CPU =     15335.21 (sec) -------------
Step     =          96900 Temp     =       297.2524 Press    =     -1899.5115 
c_born[1] =    885845.2881 f_avborn[1] =    886116.3865 c_born[12] =    175627.0603 
f_avborn[12] =    176732.8441 c_born[4] =    347572.5795 f_avborn[4] =    349268.2226
------------ Step          97000 ----- CPU =     15352.28 (sec) -------------
Step     =          97000 Temp     =       288.8334 Press    =      1642.5420 
c_born[1] =    881434.6035 f_avborn[1] =    886111.4597 c_born[12] =    176763.7897 
f_avborn[12] =    176732.2380 c_born[4] =    349923.4095 f_avborn[4] =    349267.9592
------------ Step          97100 ----- CPU =     15367.78 (sec) -------------
Step     =          97100 Temp     =       299.2755 Press    =       877.8324 
c_born[1] =    875496.9786 f_avborn[1] =    886101.8751 c_born[12] =    175760.3663 
f_avborn[12] =    176732.3078 c_born[4] =    349222.7383 f_avborn[4] =    349268.9111
------------ Step          97200 ----- CPU =     15383.24 (sec) -------------
Step     =          97200 Temp     =       301.9887 Press    =      -812.7893 
c_born[1] =    880075.6215 f_avborn[1] =    886096.7447 c_born[12] =    175769.2116 
f_avborn[12] =    176731.6081 c_born[4] =    349346.6695 f_avborn[4] =    349268.5475
------------ Step          97300 ----- CPU =     15399.17 (sec) -------------
Step     =          97300 Temp     =       300.2145 Press    =       500.5215 
c_born[1] =    876472.7390 f_avborn[1] =    886086.8200 c_born[12] =    176581.9902 
f_avborn[12] =    176730.2590 c_born[4] =    350088.4739 f_avborn[4] =    349268.0216
------------ Step          97400 ----- CPU =     15414.69 (sec) -------------
Step     =          97400 Temp     =       297.8683 Press    =      1575.0074 
c_born[1] =    882493.9520 f_avborn[1] =    886079.8582 c_born[12] =    177237.0190 
f_avborn[12] =    176730.7862 c_born[4] =    350470.7665 f_avborn[4] =    349269.1163
------------ Step          97500 ----- CPU =     15430.21 (sec) -------------
Step     =          97500 Temp     =       298.3072 Press    =      -241.1851 
c_born[1] =    882809.9991 f_avborn[1] =    886075.7592 c_born[12] =    177591.3622 
f_avborn[12] =    176731.6471 c_born[4] =    350056.3907 f_avborn[4] =    349270.1348
------------ Step          97600 ----- CPU =     15445.64 (sec) -------------
Step     =          97600 Temp     =       289.6069 Press    =      1014.5051 
c_born[1] =    874489.1554 f_avborn[1] =    886069.7101 c_born[12] =    175674.9958 
f_avborn[12] =    176731.7229 c_born[4] =    348906.0944 f_avborn[4] =    349270.5166
------------ Step          97700 ----- CPU =     15461.24 (sec) -------------
Step     =          97700 Temp     =       303.7865 Press    =      1573.9506 
c_born[1] =    870263.4572 f_avborn[1] =    886054.9307 c_born[12] =    176956.9563 
f_avborn[12] =    176731.9954 c_born[4] =    351079.3522 f_avborn[4] =    349271.9925
------------ Step          97800 ----- CPU =     15476.71 (sec) -------------
Step     =          97800 Temp     =       304.9700 Press    =     -2158.2257 
c_born[1] =    880226.7821 f_avborn[1] =    886044.0995 c_born[12] =    176290.9721 
f_avborn[12] =    176733.3907 c_born[4] =    348964.0458 f_avborn[4] =    349273.9931
------------ Step          97900 ----- CPU =     15492.15 (sec) -------------
Step     =          97900 Temp     =       298.0650 Press    =     -1260.4028 
c_born[1] =    891142.8728 f_avborn[1] =    886041.4507 c_born[12] =    175286.7198 
f_avborn[12] =    176732.2446 c_born[4] =    347809.9533 f_avborn[4] =    349272.9609
------------ Step          98000 ----- CPU =     15507.61 (sec) -------------
Step     =          98000 Temp     =       296.5343 Press    =      1106.8451 
c_born[1] =    894517.1156 f_avborn[1] =    886043.7699 c_born[12] =    178914.1766 
f_avborn[12] =    176731.7870 c_born[4] =    351267.7036 f_avborn[4] =    349272.8053
------------ Step          98100 ----- CPU =     15523.05 (sec) -------------
Step     =          98100 Temp     =       296.1308 Press    =      1316.4456 
c_born[1] =    871742.6939 f_avborn[1] =    886039.4637 c_born[12] =    178354.6059 
f_avborn[12] =    176734.3709 c_born[4] =    352529.4107 f_avborn[4] =    349276.2944
------------ Step          98200 ----- CPU =     15538.49 (sec) -------------
Step     =          98200 Temp     =       293.1451 Press    =       774.9600 
c_born[1] =    876086.1734 f_avborn[1] =    886028.4038 c_born[12] =    176474.2728 
f_avborn[12] =    176733.9587 c_born[4] =    349632.2866 f_avborn[4] =    349276.7138
------------ Step          98300 ----- CPU =     15554.14 (sec) -------------
Step     =          98300 Temp     =       303.9748 Press    =      -100.8656 
c_born[1] =    880403.8227 f_avborn[1] =    886021.7960 c_born[12] =    176969.6234 
f_avborn[12] =    176734.2463 c_born[4] =    350110.8479 f_avborn[4] =    349277.4055
------------ Step          98400 ----- CPU =     15569.63 (sec) -------------
Step     =          98400 Temp     =       303.5343 Press    =       990.5951 
c_born[1] =    883166.7599 f_avborn[1] =    886017.1623 c_born[12] =    177636.7799 
f_avborn[12] =    176734.5722 c_born[4] =    350890.1009 f_avborn[4] =    349278.6234
------------ Step          98500 ----- CPU =     15585.45 (sec) -------------
Step     =          98500 Temp     =       311.1570 Press    =       225.0435 
c_born[1] =    883228.7757 f_avborn[1] =    886011.2177 c_born[12] =    176453.0767 
f_avborn[12] =    176734.0913 c_born[4] =    349636.7011 f_avborn[4] =    349279.3500
------------ Step          98600 ----- CPU =      15600.9 (sec) -------------
Step     =          98600 Temp     =       307.7895 Press    =      1607.5345 
c_born[1] =    887584.7309 f_avborn[1] =    886015.1305 c_born[12] =    178449.3051 
f_avborn[12] =    176735.6148 c_born[4] =    350425.1546 f_avborn[4] =    349280.3474
------------ Step          98700 ----- CPU =     15616.36 (sec) -------------
Step     =          98700 Temp     =       302.4443 Press    =       405.1860 
c_born[1] =    896487.4784 f_avborn[1] =    886018.0533 c_born[12] =    176967.9356 
f_avborn[12] =    176737.3810 c_born[4] =    347958.4802 f_avborn[4] =    349281.0916
------------ Step          98800 ----- CPU =     15631.83 (sec) -------------
Step     =          98800 Temp     =       294.7907 Press    =      1658.3769 
c_born[1] =    883597.1305 f_avborn[1] =    886025.8190 c_born[12] =    177892.9219 
f_avborn[12] =    176737.1156 c_born[4] =    350176.0385 f_avborn[4] =    349279.6653
------------ Step          98900 ----- CPU =     15649.11 (sec) -------------
Step     =          98900 Temp     =       295.1084 Press    =       899.8322 
c_born[1] =    885164.8982 f_avborn[1] =    886025.9154 c_born[12] =    174861.5916 
f_avborn[12] =    176737.5188 c_born[4] =    347761.9568 f_avborn[4] =    349279.3722
------------ Step          99000 ----- CPU =      15664.7 (sec) -------------
Step     =          99000 Temp     =       298.0200 Press    =     -1709.4705 
c_born[1] =    887041.2123 f_avborn[1] =    886022.1370 c_born[12] =    177850.4175 
f_avborn[12] =    176737.7152 c_born[4] =    349329.6649 f_avborn[4] =    349279.0284
------------ Step          99100 ----- CPU =     15680.35 (sec) -------------
Step     =          99100 Temp     =       304.0324 Press    =       377.9044 
c_born[1] =    885245.2203 f_avborn[1] =    886017.4362 c_born[12] =    177861.1981 
f_avborn[12] =    176739.1347 c_born[4] =    350726.4538 f_avborn[4] =    349280.8348
------------ Step          99200 ----- CPU =      15695.9 (sec) -------------
Step     =          99200 Temp     =       303.0448 Press    =       197.1817 
c_born[1] =    880919.3110 f_avborn[1] =    886019.1544 c_born[12] =    179603.6137 
f_avborn[12] =    176740.5028 c_born[4] =    353204.5291 f_avborn[4] =    349282.4538
------------ Step          99300 ----- CPU =     15711.46 (sec) -------------
Step     =          99300 Temp     =       308.3641 Press    =       677.9677 
c_born[1] =    886918.8902 f_avborn[1] =    886013.8182 c_born[12] =    177887.9439 
f_avborn[12] =    176742.6555 c_born[4] =    351137.1210 f_avborn[4] =    349285.3829
------------ Step          99400 ----- CPU =     15726.91 (sec) -------------
Step     =          99400 Temp     =       302.4578 Press    =     -1344.5432 
c_born[1] =    883148.4348 f_avborn[1] =    886015.4211 c_born[12] =    176199.4901 
f_avborn[12] =    176742.8557 c_born[4] =    349355.7917 f_avborn[4] =    349285.6000
------------ Step          99500 ----- CPU =     15742.42 (sec) -------------
Step     =          99500 Temp     =       295.1884 Press    =      -834.6962 
c_born[1] =    886844.5421 f_avborn[1] =    886011.8202 c_born[12] =    178054.7690 
f_avborn[12] =    176743.5544 c_born[4] =    350649.4278 f_avborn[4] =    349286.9851
------------ Step          99600 ----- CPU =     15757.95 (sec) -------------
Step     =          99600 Temp     =       298.4294 Press    =       536.6671 
c_born[1] =    884147.4634 f_avborn[1] =    886010.1770 c_born[12] =    173827.0997 
f_avborn[12] =    176742.0435 c_born[4] =    346143.4918 f_avborn[4] =    349285.4832
------------ Step          99700 ----- CPU =     15773.59 (sec) -------------
Step     =          99700 Temp     =       305.1077 Press    =      2068.7894 
c_born[1] =    883045.0278 f_avborn[1] =    886008.4380 c_born[12] =    175682.4591 
f_avborn[12] =    176739.1600 c_born[4] =    348307.4846 f_avborn[4] =    349282.3779
------------ Step          99800 ----- CPU =     15789.28 (sec) -------------
Step     =          99800 Temp     =       298.8313 Press    =      1747.2245 
c_born[1] =    883284.3697 f_avborn[1] =    886006.0153 c_born[12] =    179312.9144 
f_avborn[12] =    176739.0523 c_born[4] =    352056.4508 f_avborn[4] =    349282.1939
------------ Step          99900 ----- CPU =     15804.91 (sec) -------------
Step     =          99900 Temp     =       302.5418 Press    =      -463.2901 
c_born[1] =    885284.2502 f_avborn[1] =    886005.4118 c_born[12] =    179424.1745 
f_avborn[12] =    176740.0685 c_born[4] =    351603.3307 f_avborn[4] =    349283.0699
------------ Step         100000 ----- CPU =     15820.57 (sec) -------------
Step     =         100000 Temp     =       301.7217 Press    =      1384.4131 
c_born[1] =    895190.5357 f_avborn[1] =    886007.7804 c_born[12] =    178103.9132 
f_avborn[12] =    176740.7754 c_born[4] =    349027.2745 f_avborn[4] =    349282.9501
Loop time of 15820.6 on 4 procs for 100000 steps with 2988 atoms

Performance: 0.546 ns/day, 43.946 hours/ns, 6.321 timesteps/s
263.5% CPU use with 1 MPI tasks x 4 OpenMP threads

MPI task timing breakdown:
Section |  min time  |  avg time  |  max time  |%varavg| %total
---------------------------------------------------------------
Pair    | 487.48     | 487.48     | 487.48     |   0.0 |  3.08
Bond    | 40.141     | 40.141     | 40.141     |   0.0 |  0.25
Neigh   | 81.77      | 81.77      | 81.77      |   0.0 |  0.52
Comm    | 12.018     | 12.018     | 12.018     |   0.0 |  0.08
Output  | 149.84     | 149.84     | 149.84     |   0.0 |  0.95
Modify  | 15048      | 15048      | 15048      |   0.0 | 95.12
Other   |            | 1.353      |            |       |  0.01

Nlocal:           2988 ave        2988 max        2988 min
Histogram: 1 0 0 0 0 0 0 0 0 0
Nghost:          14561 ave       14561 max       14561 min
Histogram: 1 0 0 0 0 0 0 0 0 0
Neighs:    1.21977e+06 ave 1.21977e+06 max 1.21977e+06 min
Histogram: 1 0 0 0 0 0 0 0 0 0

Total # of neighbors = 1219774
Ave neighs/atom = 408.22423
Ave special neighs/atom = 12.156627
Neighbor list builds = 4698
Dangerous builds = 0

# atm to GPa
variable ffac equal ${C2}
variable ffac equal 6.30087704776837e-06

variable F11 equal -(f_avssq[1]-f_avs[1]*f_avs[1])*${ffac}
variable F11 equal -(f_avssq[1]-f_avs[1]*f_avs[1])*6.30087704776837e-06
variable F22 equal -(f_avssq[2]-f_avs[2]*f_avs[2])*${ffac}
variable F22 equal -(f_avssq[2]-f_avs[2]*f_avs[2])*6.30087704776837e-06
variable F33 equal -(f_avssq[3]-f_avs[3]*f_avs[3])*${ffac}
variable F33 equal -(f_avssq[3]-f_avs[3]*f_avs[3])*6.30087704776837e-06
variable F44 equal -(f_avssq[4]-f_avs[4]*f_avs[4])*${ffac}
variable F44 equal -(f_avssq[4]-f_avs[4]*f_avs[4])*6.30087704776837e-06
variable F55 equal -(f_avssq[5]-f_avs[5]*f_avs[5])*${ffac}
variable F55 equal -(f_avssq[5]-f_avs[5]*f_avs[5])*6.30087704776837e-06
variable F66 equal -(f_avssq[6]-f_avs[6]*f_avs[6])*${ffac}
variable F66 equal -(f_avssq[6]-f_avs[6]*f_avs[6])*6.30087704776837e-06

variable F12 equal -(f_avssq[7]-f_avs[1]*f_avs[2])*${ffac}
variable F12 equal -(f_avssq[7]-f_avs[1]*f_avs[2])*6.30087704776837e-06
variable F13 equal -(f_avssq[8]-f_avs[1]*f_avs[3])*${ffac}
variable F13 equal -(f_avssq[8]-f_avs[1]*f_avs[3])*6.30087704776837e-06
variable F14 equal -(f_avssq[9]-f_avs[1]*f_avs[4])*${ffac}
variable F14 equal -(f_avssq[9]-f_avs[1]*f_avs[4])*6.30087704776837e-06
variable F15 equal -(f_avssq[10]-f_avs[1]*f_avs[5])*${ffac}
variable F15 equal -(f_avssq[10]-f_avs[1]*f_avs[5])*6.30087704776837e-06
variable F16 equal -(f_avssq[11]-f_avs[1]*f_avs[6])*${ffac}
variable F16 equal -(f_avssq[11]-f_avs[1]*f_avs[6])*6.30087704776837e-06

variable F23 equal -(f_avssq[12]-f_avs[2]*f_avs[3])*${ffac}
variable F23 equal -(f_avssq[12]-f_avs[2]*f_avs[3])*6.30087704776837e-06
variable F24 equal -(f_avssq[13]-f_avs[2]*f_avs[4])*${ffac}
variable F24 equal -(f_avssq[13]-f_avs[2]*f_avs[4])*6.30087704776837e-06
variable F25 equal -(f_avssq[14]-f_avs[2]*f_avs[5])*${ffac}
variable F25 equal -(f_avssq[14]-f_avs[2]*f_avs[5])*6.30087704776837e-06
variable F26 equal -(f_avssq[15]-f_avs[2]*f_avs[6])*${ffac}
variable F26 equal -(f_avssq[15]-f_avs[2]*f_avs[6])*6.30087704776837e-06

variable F34 equal -(f_avssq[16]-f_avs[3]*f_avs[4])*${ffac}
variable F34 equal -(f_avssq[16]-f_avs[3]*f_avs[4])*6.30087704776837e-06
variable F35 equal -(f_avssq[17]-f_avs[3]*f_avs[5])*${ffac}
variable F35 equal -(f_avssq[17]-f_avs[3]*f_avs[5])*6.30087704776837e-06
variable F36 equal -(f_avssq[18]-f_avs[3]*f_avs[6])*${ffac}
variable F36 equal -(f_avssq[18]-f_avs[3]*f_avs[6])*6.30087704776837e-06

variable F45 equal -(f_avssq[19]-f_avs[4]*f_avs[5])*${ffac}
variable F45 equal -(f_avssq[19]-f_avs[4]*f_avs[5])*6.30087704776837e-06
variable F46 equal -(f_avssq[20]-f_avs[4]*f_avs[6])*${ffac}
variable F46 equal -(f_avssq[20]-f_avs[4]*f_avs[6])*6.30087704776837e-06

variable F56 equal -(f_avssq[21]-f_avs[5]*f_avs[6])*${ffac}
variable F56 equal -(f_avssq[21]-f_avs[5]*f_avs[6])*6.30087704776837e-06

# Born term

# compute     virial all pressure NULL virial stress==virial


# variable bfac equal ${pconv}/vol
variable B vector f_avborn*${C1}
variable B vector f_avborn*266222.397469997

# Kinetic term

variable kfac equal ${Rhokbt} #atoms*${boltz}*${temp}/vol
variable kfac equal 474219696.297404 
variable K11 equal 2.0*${kfac}
variable K11 equal 2.0*474219696.297404
variable K22 equal 2.0*${kfac}
variable K22 equal 2.0*474219696.297404
variable K33 equal 2.0*${kfac}
variable K33 equal 2.0*474219696.297404
variable K44 equal ${kfac}
variable K44 equal 474219696.297404
variable K55 equal ${kfac}
variable K55 equal 474219696.297404
variable K66 equal ${kfac}
variable K66 equal 474219696.297404

# Add F, K, and B together

variable C11 equal v_F11+v_B[1]+v_K11
variable C22 equal v_F22+v_B[2]+v_K22
variable C33 equal v_F33+v_B[3]+v_K33
variable C44 equal v_F44+v_B[4]+v_K44
variable C55 equal v_F55+v_B[5]+v_K55
variable C66 equal v_F66+v_B[6]+v_K66

variable C12 equal v_F12+v_B[7]
variable C13 equal v_F13+v_B[8]
variable C14 equal v_F14+v_B[9]
variable C15 equal v_F15+v_B[10]
variable C16 equal v_F16+v_B[11]

variable C23 equal v_F23+v_B[12]
variable C24 equal v_F24+v_B[13]
variable C25 equal v_F25+v_B[14]
variable C26 equal v_F26+v_B[15]

variable C34 equal v_F34+v_B[16]
variable C35 equal v_F35+v_B[17]
variable C36 equal v_F36+v_B[18]

variable C45 equal v_F45+v_B[19]
variable C46 equal v_F46+v_B[20]

variable C56 equal v_F56+v_B[21]

variable aC11 equal "(v_C11 + v_C22 + v_C33)/3."
variable aC12 equal "(v_C12 + v_C13 + v_C23)/3."
variable aC44 equal "(v_C44 + v_C55 + v_C66)/3."



print """
C11 = ${C11}
C12 = ${C12}
C13 = ${C13}
C14 = ${C14}
C15 = ${C15}
C16 = ${C16}
C22 = ${C22}
C23 = ${C23}
C24 = ${C24}
C25 = ${C25}
C26 = ${C26}
C33 = ${C33}
C34 = ${C34}
C35 = ${C35}
C36 = ${C36}
C44 = ${C44}
C45 = ${C45}
C46 = ${C46}
C55 = ${C55}
C56 = ${C56}
C66 = ${C66}
"""

C11 = 11666866159.4907
C12 = 3585891453.36687
C13 = 8361627352.29328
C14 = -1993657180.36551
C15 = 1153103239.7122
C16 = -19707081.4414461
C22 = 993946737.784353
C23 = 5429105227.30375
C24 = -341017118.623329
C25 = -514831008.969028
C26 = 869084381.626315
C33 = 3554161531.36632
C34 = 2137354112.08088
C35 = -48800201.348511
C36 = -2249451221.12311
C44 = 331921174.230479
C45 = 1099450652.01379
C46 = -284706288.355507
C55 = -194356639.378591
C56 = -801683875.827534
C66 = 1801579204.16639

print """
Average-
aC11 = ${aC11}
aC12 = ${aC12}
aC44 = ${aC44}
"""

Average-
aC11 = 5404991476.21379
aC12 = 5792208010.98797
aC44 = 646381246.339426

Total wall time: 4:23:40
