LAMMPS (23 Jun 2022 - Update 1)
OMP_NUM_THREADS environment is not set. Defaulting to 1 thread. (src/comm.cpp:98)
  using 1 OpenMP thread(s) per MPI task
Loaded 1 plugins from C:\Users\HP\AppData\Local\LAMMPS 64-bit 23Jun2022\plugins
package omp 0
using multi-threaded neighbor list subroutines
package omp 4
set 4 OpenMP thread(s) per MPI task
using multi-threaded neighbor list subroutines
# Initialization
units			real
dimension		3
processors		* * *
boundary		p p p
atom_style		full
pair_style		lj/cut 10.0
bond_style		harmonic
angle_style 	harmonic
read_data		crosslinked.data
Reading data file ...
  orthogonal box = (29.738884 26.824384 29.707886) to (60.368116 57.453616 60.337118)
  1 by 1 by 1 MPI processor grid
  reading atoms ...
  2988 atoms
  scanning bonds ...
  4 = max bonds/atom
  scanning angles ...
  6 = max angles/atom
  reading bonds ...
  3044 bonds
  reading angles ...
  5800 angles
Finding 1-2 1-3 1-4 neighbors ...
  special bond factors lj:    0        0        0       
  special bond factors coul:  0        0        0       
     4 = max # of 1-2 neighbors
     7 = max # of 1-3 neighbors
    16 = max # of 1-4 neighbors
    20 = max # of special neighbors
  special bonds CPU = 0.003 seconds
  read_data CPU = 0.042 seconds

#output

thermo			100
thermo_style	custom step temp pe press vol lx density

#intial minimization
minimize		1.0e-5 1.0e-5 10000 10000
WARNING: Using 'neigh_modify every 1 delay 0 check yes' setting during minimization (src/min.cpp:187)
Generated 153 of 153 mixed pair_coeff terms from geometric mixing rule
Last active /omp style is angle_style harmonic/omp
Neighbor list info ...
  update every 1 steps, delay 0 steps, check yes
  max neighbors/atom: 2000, page size: 100000
  master list distance cutoff = 12
  ghost atom cutoff = 12
  binsize = 6, bins = 6 6 6
  1 neighbor lists, perpetual/occasional/extra = 1 0 0
  (1) pair lj/cut/omp, perpetual
      attributes: half, newton on, omp
      pair build: half/bin/newton/omp
      stencil: half/bin/3d
      bin: standard
WARNING: Inconsistent image flags (src/domain.cpp:819)
Per MPI rank memory allocation (min/avg/max) = 28.06 | 28.06 | 28.06 Mbytes
   Step          Temp          PotEng         Press          Volume           Lx          Density    
         0   0              245142.64     -567829.91      28734.809      30.629232      1.0928246    
       100   0              1326.9906     -12944.621      28734.809      30.629232      1.0928246    
       200   0             -264.04184     -4679.0028      28734.809      30.629232      1.0928246    
       300   0             -560.76554     -3369.2925      28734.809      30.629232      1.0928246    
       400   0             -695.89156     -2887.9559      28734.809      30.629232      1.0928246    
       500   0             -764.09916     -2960.36        28734.809      30.629232      1.0928246    
       600   0             -814.17895     -3203.7105      28734.809      30.629232      1.0928246    
       700   0             -858.78437     -3135.3399      28734.809      30.629232      1.0928246    
       800   0             -889.00614     -2965.7917      28734.809      30.629232      1.0928246    
       900   0             -904.85919     -2926.5991      28734.809      30.629232      1.0928246    
      1000   0             -912.49465     -3019.6317      28734.809      30.629232      1.0928246    
      1100   0             -918.75803     -2957.7376      28734.809      30.629232      1.0928246    
      1200   0             -922.53251     -2968.1204      28734.809      30.629232      1.0928246    
      1300   0             -926.24029     -3038.8477      28734.809      30.629232      1.0928246    
      1400   0             -929.7853      -3024.4667      28734.809      30.629232      1.0928246    
      1500   0             -933.27201     -3007.5968      28734.809      30.629232      1.0928246    
      1600   0             -936.11228     -3002.0407      28734.809      30.629232      1.0928246    
      1692   0             -937.95425     -3000.6516      28734.809      30.629232      1.0928246    
Loop time of 30.8102 on 4 procs for 1692 steps with 2988 atoms

298.3% CPU use with 1 MPI tasks x 4 OpenMP threads

Minimization stats:
  Stopping criterion = energy tolerance
  Energy initial, next-to-last, final = 
      245142.638414174  -937.946132550268  -937.954253174056
  Force two-norm initial, final = 28134.695 4.1719572
  Force max component initial, final = 4144.4888 1.1161888
  Final line search alpha, max atom move = 0.027303969 0.030476385
  Iterations, force evaluations = 1692 3292

MPI task timing breakdown:
Section |  min time  |  avg time  |  max time  |%varavg| %total
---------------------------------------------------------------
Pair    | 27.75      | 27.75      | 27.75      |   0.0 | 90.07
Bond    | 1.675      | 1.675      | 1.675      |   0.0 |  5.44
Neigh   | 0.49203    | 0.49203    | 0.49203    |   0.0 |  1.60
Comm    | 0.347      | 0.347      | 0.347      |   0.0 |  1.13
Output  | 0.005088   | 0.005088   | 0.005088   |   0.0 |  0.02
Modify  | 0.32947    | 0.32947    | 0.32947    |   0.0 |  1.07
Other   |            | 0.2122     |            |       |  0.69

Nlocal:           2988 ave        2988 max        2988 min
Histogram: 1 0 0 0 0 0 0 0 0 0
Nghost:          13842 ave       13842 max       13842 min
Histogram: 1 0 0 0 0 0 0 0 0 0
Neighs:    1.11254e+06 ave 1.11254e+06 max 1.11254e+06 min
Histogram: 1 0 0 0 0 0 0 0 0 0

Total # of neighbors = 1112544
Ave neighs/atom = 372.33735
Ave special neighs/atom = 12.156627
Neighbor list builds = 48
Dangerous builds = 0

timestep 1
# nvt for 500 ps
fix			1 all nvt temp 300 300 100
run			500000
Generated 153 of 153 mixed pair_coeff terms from geometric mixing rule
Last active /omp style is angle_style harmonic/omp
WARNING: Inconsistent image flags (src/domain.cpp:819)
Per MPI rank memory allocation (min/avg/max) = 25.81 | 25.81 | 25.81 Mbytes
   Step          Temp          PotEng         Press          Volume           Lx          Density    
      1692   0             -937.95425     -3000.6516      28734.809      30.629232      1.0928246    
      1700   0.0030882822  -937.98116     -3002.7342      28734.809      30.629232      1.0928246    
      1800   0.10840497    -938.76041     -3011.521       28734.809      30.629232      1.0928246    
      1900   0.188167      -938.97996     -3025.5663      28734.809      30.629232      1.0928246    
      2000   0.2478301     -938.68135     -3022.6963      28734.809      30.629232      1.0928246    
      2100   0.33196351    -938.26266     -3020.938       28734.809      30.629232      1.0928246    
      2200   0.46061923    -937.73326     -3010.6077      28734.809      30.629232      1.0928246    
      2300   0.60938427    -936.69863     -2992.962       28734.809      30.629232      1.0928246    
      2400   0.80171937    -935.24268     -2950.039       28734.809      30.629232      1.0928246    
      2500   1.0399644     -933.08887     -2901.1654      28734.809      30.629232      1.0928246    
      2600   1.3973486     -930.57182     -2901.2553      28734.809      30.629232      1.0928246    
      2700   2.1060163     -928.47314     -2682.5205      28734.809      30.629232      1.0928246    
      2800   3.1413238     -924.70339     -2738.5895      28734.809      30.629232      1.0928246    
      2900   4.7508172     -919.16278     -2664.9999      28734.809      30.629232      1.0928246    
      3000   6.7977466     -907.64922     -2416.3765      28734.809      30.629232      1.0928246    
      3100   9.5559842     -889.65467     -2320.7597      28734.809      30.629232      1.0928246    
      3200   13.743237     -865.5574      -2192.7095      28734.809      30.629232      1.0928246    
      3300   20.726183     -838.71269     -1603.543       28734.809      30.629232      1.0928246    
      3400   31.146363     -793.12196     -1127.8011      28734.809      30.629232      1.0928246    
      3500   44.750229     -715.29277     -924.41626      28734.809      30.629232      1.0928246    
      3600   62.602981     -593.13842     -658.94254      28734.809      30.629232      1.0928246    
      3700   88.953421     -444.97613     -660.95772      28734.809      30.629232      1.0928246    
      3800   121.97934     -221.6273      -171.46471      28734.809      30.629232      1.0928246    
      3900   159.52999      106.48519      1539.7941      28734.809      30.629232      1.0928246    
      4000   212.30621      420.22489      4284.5766      28734.809      30.629232      1.0928246    
      4100   274.16496      728.8632       1176.5587      28734.809      30.629232      1.0928246    
      4200   300.30346      1239.0993      271.3398       28734.809      30.629232      1.0928246    
      4300   321.87091      1508.1539      3914.3133      28734.809      30.629232      1.0928246    
      4400   312.37475      1641.0166      1385.4724      28734.809      30.629232      1.0928246    
      4500   298.17313      1514.6023      1756.8393      28734.809      30.629232      1.0928246    
      4600   282.20358      1366.2718      3840.1207      28734.809      30.629232      1.0928246    
      4700   284.74613      1340.0916      3237.7397      28734.809      30.629232      1.0928246    
      4800   307.38746      1370.2727      1683.258       28734.809      30.629232      1.0928246    
      4900   308.91301      1517.9417      3498.3037      28734.809      30.629232      1.0928246    
      5000   307.54607      1474.0648      3896.4386      28734.809      30.629232      1.0928246    
      5100   299.51031      1356.1469      1737.6401      28734.809      30.629232      1.0928246    
      5200   293.07061      1283.0574      2526.8486      28734.809      30.629232      1.0928246    
      5300   286.28647      1370.8277      2457.5072      28734.809      30.629232      1.0928246    
      5400   298.66113      1444.6744      525.3607       28734.809      30.629232      1.0928246    
      5500   310.63678      1462.0212     -258.24649      28734.809      30.629232      1.0928246    
      5600   310.28285      1431.9095      2041.0403      28734.809      30.629232      1.0928246    
      5700   301.86674      1396.5903      1729.684       28734.809      30.629232      1.0928246    
      5800   289.63269      1438.9212      435.93461      28734.809      30.629232      1.0928246    
      5900   294.59704      1389.8665      1844.7631      28734.809      30.629232      1.0928246    
      6000   303.93454      1365.8023      695.69804      28734.809      30.629232      1.0928246    
      6100   301.16453      1428.3633     -948.99003      28734.809      30.629232      1.0928246    
      6200   302.7241       1457.1665      2077.8999      28734.809      30.629232      1.0928246    
      6300   302.68325      1517.1579      3435.2562      28734.809      30.629232      1.0928246    
      6400   295.50526      1609.4173      425.20856      28734.809      30.629232      1.0928246    
      6500   307.89947      1443.9083      716.39592      28734.809      30.629232      1.0928246    
      6600   296.16418      1405.0247      995.39611      28734.809      30.629232      1.0928246    
      6700   292.02616      1379.5646      1762.849       28734.809      30.629232      1.0928246    
      6800   296.71248      1420.9377     -1379.0605      28734.809      30.629232      1.0928246    
      6900   305.45423      1483.9749     -317.999        28734.809      30.629232      1.0928246    
      7000   307.08478      1526.3118     -657.26365      28734.809      30.629232      1.0928246    
      7100   302.35719      1508.456      -1248.018       28734.809      30.629232      1.0928246    
      7200   293.46564      1480.4045     -197.65899      28734.809      30.629232      1.0928246    
      7300   299.67415      1369.6073     -839.0975       28734.809      30.629232      1.0928246    
      7400   291.75301      1474.3811     -1360.8687      28734.809      30.629232      1.0928246    
      7500   306.34624      1494.6175      2968.9812      28734.809      30.629232      1.0928246    
      7600   299.64952      1612.6261      640.55162      28734.809      30.629232      1.0928246    
      7700   301.22187      1553.406       2568.5018      28734.809      30.629232      1.0928246    
      7800   300.50886      1449.5925      893.63293      28734.809      30.629232      1.0928246    
      7900   289.92028      1425.032      -249.98919      28734.809      30.629232      1.0928246    
      8000   293.47417      1389.0652      377.28545      28734.809      30.629232      1.0928246    
      8100   295.94323      1524.6766     -759.75779      28734.809      30.629232      1.0928246    
      8200   306.45157      1599.4108      62.720704      28734.809      30.629232      1.0928246    
      8300   308.6187       1594.9186     -1760.716       28734.809      30.629232      1.0928246    
      8400   298.98271      1519.8827      566.9832       28734.809      30.629232      1.0928246    
      8500   289.57409      1469.5895      2005.2361      28734.809      30.629232      1.0928246    
      8600   294.96358      1430.8802      2251.2303      28734.809      30.629232      1.0928246    
      8700   294.90338      1565.2756      492.39251      28734.809      30.629232      1.0928246    
      8800   306.74292      1597.3981      478.71498      28734.809      30.629232      1.0928246    
      8900   314.51197      1534.7904      406.19225      28734.809      30.629232      1.0928246    
      9000   300.06705      1478.0653      40.692633      28734.809      30.629232      1.0928246    
      9100   286.58596      1457.9964     -2066.8418      28734.809      30.629232      1.0928246    
      9200   288.46192      1460.9155     -1267.4042      28734.809      30.629232      1.0928246    
      9300   301.03993      1502.7363      289.0874       28734.809      30.629232      1.0928246    
      9400   304.07221      1600.2135      1406.6028      28734.809      30.629232      1.0928246    
      9500   312.57792      1527.0697      315.63597      28734.809      30.629232      1.0928246    
      9600   296.78035      1554.743      -107.86946      28734.809      30.629232      1.0928246    
      9700   293.63839      1505.6202      358.19768      28734.809      30.629232      1.0928246    
      9800   299.22124      1449.0288      532.40144      28734.809      30.629232      1.0928246    
      9900   298.59359      1509.3255      38.070163      28734.809      30.629232      1.0928246    
     10000   303.46145      1512.6245      150.7619       28734.809      30.629232      1.0928246    
     10100   291.48934      1609.6052      501.60818      28734.809      30.629232      1.0928246    
     10200   299.09933      1513.3269     -682.83124      28734.809      30.629232      1.0928246    
     10300   299.36817      1475.0055      758.9912       28734.809      30.629232      1.0928246    
     10400   301.58393      1433.2105     -616.62864      28734.809      30.629232      1.0928246    
     10500   296.38375      1497.7849      629.77781      28734.809      30.629232      1.0928246    
     10600   298.80132      1520.4457     -1776.4735      28734.809      30.629232      1.0928246    
     10700   301.17929      1529.2818     -489.20653      28734.809      30.629232      1.0928246    
     10800   301.11968      1501.8794      893.74144      28734.809      30.629232      1.0928246    
     10900   299.68227      1440.5312     -1569.7943      28734.809      30.629232      1.0928246    
     11000   289.79613      1495.4512     -1616.4506      28734.809      30.629232      1.0928246    
     11100   298.98036      1458.8562      831.67376      28734.809      30.629232      1.0928246    
     11200   308.65986      1445.0701     -766.26073      28734.809      30.629232      1.0928246    
     11300   300.75939      1529.1643     -1143.7455      28734.809      30.629232      1.0928246    
     11400   296.96452      1493.8362     -1392.5919      28734.809      30.629232      1.0928246    
     11500   300.1594       1389.6222      1525.1234      28734.809      30.629232      1.0928246    
     11600   295.39364      1424.3903     -1340.4784      28734.809      30.629232      1.0928246    
     11700   300.18281      1431.439      -1991.9522      28734.809      30.629232      1.0928246    
     11800   298.99027      1507.4536     -108.3181       28734.809      30.629232      1.0928246    
     11900   312.36065      1444.8059     -696.90345      28734.809      30.629232      1.0928246    
     12000   306.15516      1468.5128     -804.09249      28734.809      30.629232      1.0928246    
     12100   297.21738      1452.7568     -2343.2459      28734.809      30.629232      1.0928246    
     12200   295.23047      1433.5452      526.53461      28734.809      30.629232      1.0928246    
     12300   294.93516      1497.0041     -2085.5357      28734.809      30.629232      1.0928246    
     12400   301.71575      1544.1707     -1595.5533      28734.809      30.629232      1.0928246    
     12500   308.11172      1526.6857     -1101.3052      28734.809      30.629232      1.0928246    
     12600   300.03746      1511.8014     -1322.1625      28734.809      30.629232      1.0928246    
     12700   299.69963      1402.7895     -2113.7943      28734.809      30.629232      1.0928246    
     12800   304.48115      1324.4119     -66.349036      28734.809      30.629232      1.0928246    
     12900   295.57898      1469.6281      306.07778      28734.809      30.629232      1.0928246    
     13000   301.03544      1532.0302     -301.71467      28734.809      30.629232      1.0928246    
     13100   304.42383      1541.6294     -405.64883      28734.809      30.629232      1.0928246    
     13200   300.7424       1492.6147     -131.9007       28734.809      30.629232      1.0928246    
     13300   295.96371      1423.9154     -2374.9197      28734.809      30.629232      1.0928246    
     13400   293.26759      1420.6844     -1922.8364      28734.809      30.629232      1.0928246    
     13500   293.57695      1488.2707     -1325.5789      28734.809      30.629232      1.0928246    
     13600   310.46695      1450.242      -1174.735       28734.809      30.629232      1.0928246    
     13700   304.62185      1534.6814     -858.9872       28734.809      30.629232      1.0928246    
     13800   298.58364      1509.0749     -1425.7657      28734.809      30.629232      1.0928246    
     13900   297.31981      1393.9168     -825.42518      28734.809      30.629232      1.0928246    
     14000   285.91895      1466.4138     -1797.7486      28734.809      30.629232      1.0928246    
     14100   299.4648       1424.9588     -756.82504      28734.809      30.629232      1.0928246    
     14200   305.23881      1482.3101      70.879885      28734.809      30.629232      1.0928246    
     14300   304.72111      1542.3054      635.72459      28734.809      30.629232      1.0928246    
     14400   300.29841      1536.4972     -1505.882       28734.809      30.629232      1.0928246    
     14500   297.85978      1467.3842     -2591.019       28734.809      30.629232      1.0928246    
     14600   295.64698      1438.8438     -415.5852       28734.809      30.629232      1.0928246    
     14700   294.64748      1492.4763      350.38292      28734.809      30.629232      1.0928246    
     14800   303.58761      1518.7697     -2459.7484      28734.809      30.629232      1.0928246    
     14900   305.47581      1605.0822     -2855.519       28734.809      30.629232      1.0928246    
     15000   308.73399      1537.2536      753.88656      28734.809      30.629232      1.0928246    
     15100   300.63369      1457.8853     -877.24081      28734.809      30.629232      1.0928246    
     15200   290.67532      1452.8915      487.97982      28734.809      30.629232      1.0928246    
     15300   300.95534      1401.9145     -948.39824      28734.809      30.629232      1.0928246    
     15400   294.91395      1567.1296     -2355.7972      28734.809      30.629232      1.0928246    
     15500   307.6157       1514.1049     -445.82332      28734.809      30.629232      1.0928246    
     15600   305.16083      1509.7547     -666.45432      28734.809      30.629232      1.0928246    
     15700   299.53037      1474.5436     -827.56644      28734.809      30.629232      1.0928246    
     15800   299.53241      1408.395      -2706.2392      28734.809      30.629232      1.0928246    
     15900   296.46415      1448.0515     -2091.2839      28734.809      30.629232      1.0928246    
     16000   298.42902      1490.6757     -158.47562      28734.809      30.629232      1.0928246    
     16100   301.58772      1527.2422     -531.13373      28734.809      30.629232      1.0928246    
     16200   307.46172      1505.2802     -1077.6991      28734.809      30.629232      1.0928246    
     16300   301.24448      1518.0008      1407.793       28734.809      30.629232      1.0928246    
     16400   303.00944      1410.2227     -2417.6769      28734.809      30.629232      1.0928246    
     16500   296.11762      1426.8699     -2633.3274      28734.809      30.629232      1.0928246    
     16600   297.95324      1461.686      -1294.6157      28734.809      30.629232      1.0928246    
     16700   300.84713      1525.0134     -1928.3007      28734.809      30.629232      1.0928246    
     16800   305.26996      1541.536      -2130.7745      28734.809      30.629232      1.0928246    
     16900   307.56901      1492.3867     -1039.6931      28734.809      30.629232      1.0928246    
     17000   297.80477      1510.0711      1032.2217      28734.809      30.629232      1.0928246    
     17100   298.56607      1424.2319     -21.658906      28734.809      30.629232      1.0928246    
     17200   296.8826       1427.0704      164.90734      28734.809      30.629232      1.0928246    
     17300   302.324        1434.2416      1342.7506      28734.809      30.629232      1.0928246    
     17400   303.83363      1475.1809     -70.297379      28734.809      30.629232      1.0928246    
     17500   301.24796      1500.2752     -624.46221      28734.809      30.629232      1.0928246    
     17600   296.72287      1494.664       92.280358      28734.809      30.629232      1.0928246    
     17700   295.03278      1471.8504     -2011.7699      28734.809      30.629232      1.0928246    
     17800   296.46125      1480.9717      1303.7626      28734.809      30.629232      1.0928246    
     17900   301.66588      1490.5672     -1395.0511      28734.809      30.629232      1.0928246    
     18000   304.86774      1511.6071     -1450.3503      28734.809      30.629232      1.0928246    
     18100   301.85607      1520.6653      1927.8839      28734.809      30.629232      1.0928246    
     18200   302.5601       1443.3851     -2194.7151      28734.809      30.629232      1.0928246    
     18300   297.62549      1426.2798      24.749842      28734.809      30.629232      1.0928246    
     18400   300.78001      1414.5356      576.84668      28734.809      30.629232      1.0928246    
     18500   300.65373      1475.2497     -1396.0597      28734.809      30.629232      1.0928246    
     18600   306.01009      1487.7049     -599.51401      28734.809      30.629232      1.0928246    
     18700   303.69066      1500.6558      1046.728       28734.809      30.629232      1.0928246    
     18800   302.33928      1444.6635     -2023.7452      28734.809      30.629232      1.0928246    
     18900   295.60884      1466.6922     -1453.3711      28734.809      30.629232      1.0928246    
     19000   292.97424      1497.4378     -2595.9398      28734.809      30.629232      1.0928246    
     19100   305.24804      1443.6219     -2287.2941      28734.809      30.629232      1.0928246    
     19200   302.74949      1531.8687     -3092.1168      28734.809      30.629232      1.0928246    
     19300   300.94949      1568.1541     -2806.1841      28734.809      30.629232      1.0928246    
     19400   306.89344      1465.1109      269.93233      28734.809      30.629232      1.0928246    
     19500   297.60507      1466.6046     -602.7378       28734.809      30.629232      1.0928246    
     19600   289.66287      1509.5714     -2938.4202      28734.809      30.629232      1.0928246    
     19700   305.11636      1441.2546     -222.02804      28734.809      30.629232      1.0928246    
     19800   305.1048       1514.6896     -877.23829      28734.809      30.629232      1.0928246    
     19900   299.50056      1557.049      -977.25002      28734.809      30.629232      1.0928246    
     20000   298.45624      1489.2104     -1915.9533      28734.809      30.629232      1.0928246    
     20100   293.24999      1470.5243     -897.49902      28734.809      30.629232      1.0928246    
     20200   299.90764      1412.6502     -4610.7342      28734.809      30.629232      1.0928246    
     20300   300.28605      1483.7663     -3608.1025      28734.809      30.629232      1.0928246    
     20400   306.14742      1511.3696     -3348.2591      28734.809      30.629232      1.0928246    
     20500   307.21926      1487.4527     -818.78338      28734.809      30.629232      1.0928246    
     20600   296.02612      1493.9664     -1972.3528      28734.809      30.629232      1.0928246    
     20700   294.16312      1453.2727     -1095.9561      28734.809      30.629232      1.0928246    
     20800   296.41208      1446.1996     -2372.2106      28734.809      30.629232      1.0928246    
     20900   296.36248      1524.8263     -2612.751       28734.809      30.629232      1.0928246    
     21000   304.82872      1538.0979     -1908.7161      28734.809      30.629232      1.0928246    
     21100   303.89007      1535.1589     -537.39985      28734.809      30.629232      1.0928246    
     21200   299.6317       1506.1974     -766.75177      28734.809      30.629232      1.0928246    
     21300   294.78501      1475.9781     -2528.8293      28734.809      30.629232      1.0928246    
     21400   298.40207      1426.8653     -4803.1582      28734.809      30.629232      1.0928246    
     21500   303.98648      1435.786      -2629.217       28734.809      30.629232      1.0928246    
     21600   303.12427      1521.4422     -1431.766       28734.809      30.629232      1.0928246    
     21700   303.90985      1546.4537     -1379.7587      28734.809      30.629232      1.0928246    
     21800   309.43848      1446.4806     -1037.2401      28734.809      30.629232      1.0928246    
     21900   291.22525      1531.8485     -3230.626       28734.809      30.629232      1.0928246    
     22000   292.20966      1493.6718     -1997.6315      28734.809      30.629232      1.0928246    
     22100   300.37716      1482.13       -1861.924       28734.809      30.629232      1.0928246    
     22200   310.66631      1466.1235      46.267632      28734.809      30.629232      1.0928246    
     22300   299.80832      1560.5827     -1104.0735      28734.809      30.629232      1.0928246    
     22400   306.6687       1444.1423     -1450.3059      28734.809      30.629232      1.0928246    
     22500   292.63792      1498.396      -2547.209       28734.809      30.629232      1.0928246    
     22600   303.60893      1372.4602      69.902374      28734.809      30.629232      1.0928246    
     22700   302.97223      1417.2424     -682.52143      28734.809      30.629232      1.0928246    
     22800   296.06827      1555.6985     -2846.8655      28734.809      30.629232      1.0928246    
     22900   308.18956      1475.6831     -1942.7332      28734.809      30.629232      1.0928246    
     23000   298.47415      1509.9819     -747.3602       28734.809      30.629232      1.0928246    
     23100   296.59174      1450.9547      262.94777      28734.809      30.629232      1.0928246    
     23200   299.24833      1383.7714     -46.560226      28734.809      30.629232      1.0928246    
     23300   304.2361       1398.2561     -453.06066      28734.809      30.629232      1.0928246    
     23400   306.81833      1486.321      -3052.0982      28734.809      30.629232      1.0928246    
     23500   306.15705      1541.3732     -2544.5926      28734.809      30.629232      1.0928246    
     23600   302.80481      1505.4896     -1313.6496      28734.809      30.629232      1.0928246    
     23700   297.58838      1445.9863     -2656.1556      28734.809      30.629232      1.0928246    
     23800   286.90114      1498.4177     -1164.9658      28734.809      30.629232      1.0928246    
     23900   296.6297       1457.8614     -506.62882      28734.809      30.629232      1.0928246    
     24000   304.55239      1475.0371     -687.25072      28734.809      30.629232      1.0928246    
     24100   298.6901       1576.7808     -1989.9041      28734.809      30.629232      1.0928246    
     24200   304.0264       1488.7906     -1360.6842      28734.809      30.629232      1.0928246    
     24300   295.24919      1476.0872     -1463.5087      28734.809      30.629232      1.0928246    
     24400   292.58489      1433.9685     -530.1401       28734.809      30.629232      1.0928246    
     24500   294.15745      1451.0188     -478.5507       28734.809      30.629232      1.0928246    
     24600   301.24822      1487.3529      1036.7628      28734.809      30.629232      1.0928246    
     24700   304.65885      1523.5929     -1569.0098      28734.809      30.629232      1.0928246    
     24800   301.13684      1527.5406     -1328.6463      28734.809      30.629232      1.0928246    
     24900   296.47092      1476.5146     -1338.1252      28734.809      30.629232      1.0928246    
     25000   296.78186      1418.339      -1684.3368      28734.809      30.629232      1.0928246    
     25100   295.78315      1456.23       -2028.4181      28734.809      30.629232      1.0928246    
     25200   302.86562      1483.0759     -1754.0072      28734.809      30.629232      1.0928246    
     25300   304.27651      1514.1325     -1431.9565      28734.809      30.629232      1.0928246    
     25400   308.63934      1432.1505     -1047.4882      28734.809      30.629232      1.0928246    
     25500   298.85293      1443.3394     -1498.563       28734.809      30.629232      1.0928246    
     25600   297.42407      1417.4528     -2421.9275      28734.809      30.629232      1.0928246    
     25700   298.35482      1457.528      -36.125141      28734.809      30.629232      1.0928246    
     25800   299.8372       1522.7388     -948.86235      28734.809      30.629232      1.0928246    
     25900   304.43945      1521.5059     -1383.245       28734.809      30.629232      1.0928246    
     26000   297.88891      1529.2781     -61.191812      28734.809      30.629232      1.0928246    
     26100   299.77213      1427.7643     -1732.551       28734.809      30.629232      1.0928246    
     26200   297.29399      1404.6098     -1424.5928      28734.809      30.629232      1.0928246    
     26300   298.33948      1433.2169     -583.03764      28734.809      30.629232      1.0928246    
     26400   300.68692      1480.1447     -3517.1941      28734.809      30.629232      1.0928246    
     26500   298.67455      1529.6122     -1564.1359      28734.809      30.629232      1.0928246    
     26600   300.96436      1481.832      -2331.8929      28734.809      30.629232      1.0928246    
     26700   303.7796       1393.1228     -2492.2351      28734.809      30.629232      1.0928246    
     26800   296.50638      1404.3724     -1362.1042      28734.809      30.629232      1.0928246    
     26900   295.48863      1421.1255      719.99951      28734.809      30.629232      1.0928246    
     27000   298.69729      1452.9335     -941.46903      28734.809      30.629232      1.0928246    
     27100   301.16452      1489.0669     -932.16123      28734.809      30.629232      1.0928246    
     27200   304.38211      1474.1502     -1011.2898      28734.809      30.629232      1.0928246    
     27300   302.03049      1436.8112     -2086.4243      28734.809      30.629232      1.0928246    
     27400   294.67652      1434.3227     -2440.1868      28734.809      30.629232      1.0928246    
     27500   295.58353      1434.3182     -201.46412      28734.809      30.629232      1.0928246    
     27600   299.57234      1496.6483     -2007.4567      28734.809      30.629232      1.0928246    
     27700   295.90651      1585.436      -1792.397       28734.809      30.629232      1.0928246    
     27800   302.99574      1483.5434     -3033.2374      28734.809      30.629232      1.0928246    
     27900   293.08257      1501.1192     -1914.0012      28734.809      30.629232      1.0928246    
     28000   291.06068      1488.9921      330.76726      28734.809      30.629232      1.0928246    
     28100   299.76659      1444.3763     -941.21637      28734.809      30.629232      1.0928246    
     28200   304.86273      1460.0233     -210.73649      28734.809      30.629232      1.0928246    
     28300   303.52202      1508.216      -1656.5686      28734.809      30.629232      1.0928246    
     28400   300.58565      1494.5602     -2294.6583      28734.809      30.629232      1.0928246    
     28500   299.89414      1419.9953     -464.1636       28734.809      30.629232      1.0928246    
     28600   296.43778      1412.9974     -3232.4838      28734.809      30.629232      1.0928246    
     28700   297.82385      1440.5269     -1685.325       28734.809      30.629232      1.0928246    
     28800   305.18061      1441.2199     -1045.5888      28734.809      30.629232      1.0928246    
     28900   302.13847      1512.3442     -429.32601      28734.809      30.629232      1.0928246    
     29000   308.50518      1423.2877     -272.44587      28734.809      30.629232      1.0928246    
     29100   297.39155      1443.2567     -2327.0669      28734.809      30.629232      1.0928246    
     29200   300.99389      1371.121      -1639.4366      28734.809      30.629232      1.0928246    
     29300   302.52086      1389.625      -2912.3178      28734.809      30.629232      1.0928246    
     29400   301.08673      1482.0265     -1466.3935      28734.809      30.629232      1.0928246    
     29500   306.79947      1479.0027     -1429.0587      28734.809      30.629232      1.0928246    
     29600   295.13496      1547.3775     -1692.8566      28734.809      30.629232      1.0928246    
     29700   302.03863      1409.5609     -1012.3834      28734.809      30.629232      1.0928246    
     29800   293.61623      1430.1024     -343.79657      28734.809      30.629232      1.0928246    
     29900   300.22395      1394.1043     -930.85935      28734.809      30.629232      1.0928246    
     30000   303.21741      1425.5497     -1545.7807      28734.809      30.629232      1.0928246    
     30100   304.0147       1457.7599     -1571.7709      28734.809      30.629232      1.0928246    
     30200   298.09084      1495.0644     -1090.4716      28734.809      30.629232      1.0928246    
     30300   296.30103      1475.1206     -1067.5289      28734.809      30.629232      1.0928246    
     30400   302.49271      1403.508      -3057.0703      28734.809      30.629232      1.0928246    
     30500   299.08984      1442.6358     -2980.6756      28734.809      30.629232      1.0928246    
     30600   305.33122      1423.0973     -1852.3318      28734.809      30.629232      1.0928246    
     30700   300.1663       1502.8297     -1616.5644      28734.809      30.629232      1.0928246    
     30800   300.01037      1513.0964     -3568.0266      28734.809      30.629232      1.0928246    
     30900   298.72447      1500.323      -2861.0089      28734.809      30.629232      1.0928246    
     31000   303.02425      1407.2069     -1137.0027      28734.809      30.629232      1.0928246    
     31100   290.68971      1490.5305     -458.96941      28734.809      30.629232      1.0928246    
     31200   295.32178      1479.332      -1865.1967      28734.809      30.629232      1.0928246    
     31300   301.49277      1491.3893     -694.71239      28734.809      30.629232      1.0928246    
     31400   310.41781      1456.6564     -1864.0073      28734.809      30.629232      1.0928246    
     31500   301.64776      1500.6737      213.02253      28734.809      30.629232      1.0928246    
     31600   290.71072      1543.5738     -1517.1579      28734.809      30.629232      1.0928246    
     31700   292.84301      1506.1662     -2545.0318      28734.809      30.629232      1.0928246    
     31800   302.36438      1454.7617     -1258.8619      28734.809      30.629232      1.0928246    
     31900   305.66901      1454.1819     -3446.1818      28734.809      30.629232      1.0928246    
     32000   300.22202      1503.6518     -3259.8851      28734.809      30.629232      1.0928246    
     32100   300.74294      1463.4582     -2063.281       28734.809      30.629232      1.0928246    
     32200   295.97681      1473.1961     -626.928        28734.809      30.629232      1.0928246    
     32300   294.62756      1507.5411     -2151.4337      28734.809      30.629232      1.0928246    
     32400   300.80754      1517.4574     -2627.767       28734.809      30.629232      1.0928246    
     32500   303.48571      1490.3919     -602.26113      28734.809      30.629232      1.0928246    
     32600   302.14103      1435.8852     -1482.1124      28734.809      30.629232      1.0928246    
     32700   296.21147      1433.9593     -1674.3585      28734.809      30.629232      1.0928246    
     32800   296.39227      1449.7254      620.35013      28734.809      30.629232      1.0928246    
     32900   303.71059      1440.7521     -2374.4579      28734.809      30.629232      1.0928246    
     33000   301.38892      1494.729      -646.03593      28734.809      30.629232      1.0928246    
     33100   301.39478      1499.8625      44.517901      28734.809      30.629232      1.0928246    
     33200   305.02085      1424.0843     -686.05615      28734.809      30.629232      1.0928246    
     33300   298.95374      1440.9441      409.01012      28734.809      30.629232      1.0928246    
     33400   301.82251      1420.0606     -1642.384       28734.809      30.629232      1.0928246    
     33500   300.31596      1458.1258     -1502.9222      28734.809      30.629232      1.0928246    
     33600   301.93677      1474.1781      563.63211      28734.809      30.629232      1.0928246    
     33700   306.93929      1420.6099     -765.53852      28734.809      30.629232      1.0928246    
     33800   293.27875      1487.0898     -611.0754       28734.809      30.629232      1.0928246    
     33900   296.22035      1412.5055     -1008.0191      28734.809      30.629232      1.0928246    
     34000   294.47741      1481.1054     -741.73257      28734.809      30.629232      1.0928246    
     34100   303.46291      1494.3797     -2664.3381      28734.809      30.629232      1.0928246    
     34200   303.21743      1477.3797     -1450.4491      28734.809      30.629232      1.0928246    
     34300   296.49857      1488.2313     -3684.6245      28734.809      30.629232      1.0928246    
     34400   301.30755      1429.0034     -2423.9612      28734.809      30.629232      1.0928246    
     34500   297.35419      1494.6243     -990.22338      28734.809      30.629232      1.0928246    
     34600   308.00985      1486.6478     -2692.8809      28734.809      30.629232      1.0928246    
     34700   301.61264      1544.3753     -2012.8168      28734.809      30.629232      1.0928246    
     34800   296.68385      1516.4415     -1963.6276      28734.809      30.629232      1.0928246    
     34900   297.2059       1454.5785     -1049.3847      28734.809      30.629232      1.0928246    
     35000   298.02221      1451.2681     -2141.2315      28734.809      30.629232      1.0928246    
     35100   297.8472       1475.7975     -405.33581      28734.809      30.629232      1.0928246    
     35200   300.50803      1459.7267     -597.64319      28734.809      30.629232      1.0928246    
     35300   299.9745       1477.5578     -1162.9679      28734.809      30.629232      1.0928246    
     35400   301.40317      1464.9199     -2118.2122      28734.809      30.629232      1.0928246    
     35500   296.81545      1487.6707     -698.51033      28734.809      30.629232      1.0928246    
     35600   299.93229      1450.4948     -2059.2854      28734.809      30.629232      1.0928246    
     35700   298.83596      1495.1962     -1192.0017      28734.809      30.629232      1.0928246    
     35800   300.49873      1509.173      -1135.0997      28734.809      30.629232      1.0928246    
     35900   300.77254      1477.4825     -2526.466       28734.809      30.629232      1.0928246    
     36000   298.20588      1424.1274     -2261.2645      28734.809      30.629232      1.0928246    
     36100   288.81134      1490.1056      342.79976      28734.809      30.629232      1.0928246    
     36200   305.12812      1432.9557     -1202.4293      28734.809      30.629232      1.0928246    
     36300   305.72663      1490.2015     -2390.8919      28734.809      30.629232      1.0928246    
     36400   297.65942      1526.9098     -1637.6753      28734.809      30.629232      1.0928246    
     36500   296.24337      1475.7205     -2974.0215      28734.809      30.629232      1.0928246    
     36600   299.12112      1423.6992     -2652.6854      28734.809      30.629232      1.0928246    
     36700   299.16714      1436.7526     -2788.4347      28734.809      30.629232      1.0928246    
     36800   302.58918      1513.7711     -1931.7767      28734.809      30.629232      1.0928246    
     36900   305.89358      1534.8107     -2482.6815      28734.809      30.629232      1.0928246    
     37000   302.29332      1501.0724     -2016.4611      28734.809      30.629232      1.0928246    
     37100   295.67437      1500.5885     -2471.5761      28734.809      30.629232      1.0928246    
     37200   299.354        1458.0803     -2444.4275      28734.809      30.629232      1.0928246    
     37300   297.35511      1517.0212     -3905.8787      28734.809      30.629232      1.0928246    
     37400   310.67774      1492.4504     -2085.7033      28734.809      30.629232      1.0928246    
     37500   303.35409      1587.0589     -973.11024      28734.809      30.629232      1.0928246    
     37600   299.87839      1476.3879     -3659.4118      28734.809      30.629232      1.0928246    
     37700   299.82848      1441.671      -1354.2226      28734.809      30.629232      1.0928246    
     37800   299.13798      1460.7092     -801.2656       28734.809      30.629232      1.0928246    
     37900   301.67258      1491.7058     -34.107357      28734.809      30.629232      1.0928246    
     38000   306.43244      1481.5761     -1964.1196      28734.809      30.629232      1.0928246    
     38100   301.79206      1499.8198     -455.59313      28734.809      30.629232      1.0928246    
     38200   294.7196       1475.4729     -2165.7133      28734.809      30.629232      1.0928246    
     38300   299.08456      1403.8243     -1585.9728      28734.809      30.629232      1.0928246    
     38400   302.51948      1407.4536     -236.9156       28734.809      30.629232      1.0928246    
     38500   301.83701      1529.5911     -1211.8149      28734.809      30.629232      1.0928246    
     38600   308.74227      1457.3994     -1995.6439      28734.809      30.629232      1.0928246    
     38700   296.99414      1501.533      -1620.6601      28734.809      30.629232      1.0928246    
     38800   296.83134      1471.7755     -2650.2869      28734.809      30.629232      1.0928246    
     38900   296.87442      1479.4878     -2064.6843      28734.809      30.629232      1.0928246    
     39000   299.16231      1539.141      -2186.4429      28734.809      30.629232      1.0928246    
     39100   309.84148      1522.4833     -1331.8384      28734.809      30.629232      1.0928246    
     39200   311.18318      1451.5964     -1686.6101      28734.809      30.629232      1.0928246    
     39300   296.50152      1512.9973     -1327.927       28734.809      30.629232      1.0928246    
     39400   297.12099      1480.3236     -1321.8817      28734.809      30.629232      1.0928246    
     39500   299.64829      1444.133      -691.51264      28734.809      30.629232      1.0928246    
     39600   299.80315      1484.0559     -2413.4855      28734.809      30.629232      1.0928246    
     39700   306.08274      1513.372       38.894418      28734.809      30.629232      1.0928246    
     39800   305.47748      1507.4858     -2422.8663      28734.809      30.629232      1.0928246    
     39900   303.92829      1431.2056     -2192.8637      28734.809      30.629232      1.0928246    
     40000   296.53625      1474.6486     -2277.7809      28734.809      30.629232      1.0928246    
     40100   297.54148      1479.5243     -2408.063       28734.809      30.629232      1.0928246    
     40200   302.77733      1464.4406     -2276.8957      28734.809      30.629232      1.0928246    
     40300   306.14006      1507.2618     -35.776901      28734.809      30.629232      1.0928246    
     40400   308.87645      1530.5614     -527.93639      28734.809      30.629232      1.0928246    
     40500   302.08443      1486.092      -2870.0284      28734.809      30.629232      1.0928246    
     40600   297.07618      1483.1821     -2151.252       28734.809      30.629232      1.0928246    
     40700   299.41033      1446.0096     -2124.2162      28734.809      30.629232      1.0928246    
     40800   294.11721      1473.2219     -1783.0712      28734.809      30.629232      1.0928246    
     40900   295.5105       1469.6399     -2763.4597      28734.809      30.629232      1.0928246    
     41000   301.5785       1493.183      -3280.4558      28734.809      30.629232      1.0928246    
     41100   302.21591      1535.1249     -2015.7207      28734.809      30.629232      1.0928246    
     41200   298.28945      1525.8827     -1283.7882      28734.809      30.629232      1.0928246    
     41300   293.13895      1471.8366     -2382.317       28734.809      30.629232      1.0928246    
     41400   298.33116      1432.532      -1892.6853      28734.809      30.629232      1.0928246    
     41500   299.19747      1452.5939     -3030.0621      28734.809      30.629232      1.0928246    
     41600   299.57702      1486.2309     -822.65926      28734.809      30.629232      1.0928246    
     41700   303.54584      1524.9818     -2435.6792      28734.809      30.629232      1.0928246    
     41800   312.35897      1485.8624     -313.70236      28734.809      30.629232      1.0928246    
     41900   299.70672      1489.6639     -1463.966       28734.809      30.629232      1.0928246    
     42000   297.84866      1456.0225     -4312.4521      28734.809      30.629232      1.0928246    
     42100   296.32735      1490.5373     -1297.7051      28734.809      30.629232      1.0928246    
     42200   300.36226      1514.3997     -1833.6015      28734.809      30.629232      1.0928246    
     42300   300.87021      1537.3619     -2795.4466      28734.809      30.629232      1.0928246    
     42400   301.94829      1451.8577     -2133.1439      28734.809      30.629232      1.0928246    
     42500   296.76778      1414.9557     -1951.4233      28734.809      30.629232      1.0928246    
     42600   301.00268      1381.5321     -2825.1699      28734.809      30.629232      1.0928246    
     42700   300.35133      1460.0509     -2205.3399      28734.809      30.629232      1.0928246    
     42800   300.1215       1515.457      -2441.1493      28734.809      30.629232      1.0928246    
     42900   302.93269      1487.002      -1512.3134      28734.809      30.629232      1.0928246    
     43000   298.5426       1488.8875     -381.83482      28734.809      30.629232      1.0928246    
     43100   300.51897      1461.0353     -482.14521      28734.809      30.629232      1.0928246    
     43200   298.7745       1470.4941     -1199.9425      28734.809      30.629232      1.0928246    
     43300   296.91984      1489.2258     -1582.6577      28734.809      30.629232      1.0928246    
     43400   297.27922      1499.1783     -2050.5144      28734.809      30.629232      1.0928246    
     43500   301.92362      1470.4592     -943.547        28734.809      30.629232      1.0928246    
     43600   303.52949      1414.5218     -1499.8289      28734.809      30.629232      1.0928246    
     43700   293.7556       1412.5813     -2220.0484      28734.809      30.629232      1.0928246    
     43800   296.86661      1420.3781     -2327.1862      28734.809      30.629232      1.0928246    
     43900   300.39852      1464.0619     -239.13956      28734.809      30.629232      1.0928246    
     44000   305.18191      1427.3768     -1226.6059      28734.809      30.629232      1.0928246    
     44100   297.30806      1472.3523     -344.10495      28734.809      30.629232      1.0928246    
     44200   298.71287      1403.5316      305.25698      28734.809      30.629232      1.0928246    
     44300   292.94006      1376.3419     -2735.0246      28734.809      30.629232      1.0928246    
     44400   289.38757      1396.8574     -2990.8503      28734.809      30.629232      1.0928246    
     44500   304.50561      1383.4887     -2535.0482      28734.809      30.629232      1.0928246    
     44600   302.73711      1441.8324     -2790.2983      28734.809      30.629232      1.0928246    
     44700   293.96006      1542.3326     -3398.6022      28734.809      30.629232      1.0928246    
     44800   295.73435      1537.9918     -2158.6421      28734.809      30.629232      1.0928246    
     44900   301.96972      1488.9388     -1310.8344      28734.809      30.629232      1.0928246    
     45000   297.8625       1488.2068      1442.7944      28734.809      30.629232      1.0928246    
     45100   298.52013      1423.6565     -2769.6248      28734.809      30.629232      1.0928246    
     45200   294.64521      1447.8688     -617.97411      28734.809      30.629232      1.0928246    
     45300   302.24018      1463.1803     -40.503288      28734.809      30.629232      1.0928246    
     45400   303.79097      1509.6699     -1610.6007      28734.809      30.629232      1.0928246    
     45500   301.5021       1485.656      -659.31559      28734.809      30.629232      1.0928246    
     45600   298.11943      1461.3293     -984.05518      28734.809      30.629232      1.0928246    
     45700   304.95002      1386.5962     -962.51565      28734.809      30.629232      1.0928246    
     45800   300.99486      1438.0971     -2647.4445      28734.809      30.629232      1.0928246    
     45900   299.05645      1472.1437     -1328.6129      28734.809      30.629232      1.0928246    
     46000   294.76204      1530.8739     -2306.9268      28734.809      30.629232      1.0928246    
     46100   302.56868      1520.7935     -3222.3244      28734.809      30.629232      1.0928246    
     46200   304.57003      1490.2065     -1844.5356      28734.809      30.629232      1.0928246    
     46300   297.29934      1479.9895     -2084.0824      28734.809      30.629232      1.0928246    
     46400   296.89046      1445.7424     -3035.9474      28734.809      30.629232      1.0928246    
     46500   298.67771      1449.212      -2799.659       28734.809      30.629232      1.0928246    
     46600   303.37922      1515.9425     -1806.7424      28734.809      30.629232      1.0928246    
     46700   302.08975      1548.5097     -1615.5205      28734.809      30.629232      1.0928246    
     46800   301.54139      1503.5265     -2588.9285      28734.809      30.629232      1.0928246    
     46900   300.8531       1453.2303     -2194.2673      28734.809      30.629232      1.0928246    
     47000   293.90095      1499.6185     -1686.9541      28734.809      30.629232      1.0928246    
     47100   301.52488      1457.548      -2254.4759      28734.809      30.629232      1.0928246    
     47200   303.62089      1484.686      -1714.7051      28734.809      30.629232      1.0928246    
     47300   306.42657      1558.2636     -3547.1985      28734.809      30.629232      1.0928246    
     47400   308.28936      1583.4915     -4708.2394      28734.809      30.629232      1.0928246    
     47500   308.19591      1506.5848     -2086.9044      28734.809      30.629232      1.0928246    
     47600   305.19085      1484.2815     -3069.4392      28734.809      30.629232      1.0928246    
     47700   302.13725      1461.7361     -3884.0805      28734.809      30.629232      1.0928246    
     47800   294.64734      1464.1727     -820.61766      28734.809      30.629232      1.0928246    
     47900   293.94123      1471.7571     -3919.1361      28734.809      30.629232      1.0928246    
     48000   302.8582       1480.1542     -1408.6709      28734.809      30.629232      1.0928246    
     48100   302.66659      1536.3929     -2423.6481      28734.809      30.629232      1.0928246    
     48200   296.21987      1557.7656     -3098.0302      28734.809      30.629232      1.0928246    
     48300   303.7622       1431.3745     -2835.6443      28734.809      30.629232      1.0928246    
     48400   295.87906      1458.8679     -2031.8831      28734.809      30.629232      1.0928246    
     48500   297.03957      1448.9865     -2127.8127      28734.809      30.629232      1.0928246    
     48600   304.02528      1497.1465     -4123.4982      28734.809      30.629232      1.0928246    
     48700   307.82729      1501.6594     -2304.9448      28734.809      30.629232      1.0928246    
     48800   301.30556      1487.3047     -1602.5947      28734.809      30.629232      1.0928246    
     48900   292.55213      1514.7763     -210.09828      28734.809      30.629232      1.0928246    
     49000   295.26407      1478.2656     -1685.1906      28734.809      30.629232      1.0928246    
     49100   299.9598       1443.9827     -1722.5748      28734.809      30.629232      1.0928246    
     49200   302.68959      1473.1158     -1963.6101      28734.809      30.629232      1.0928246    
     49300   302.96053      1532.2901     -1743.2381      28734.809      30.629232      1.0928246    
     49400   300.12336      1506.765      -2279.9811      28734.809      30.629232      1.0928246    
     49500   301.90848      1417.9298     -811.6247       28734.809      30.629232      1.0928246    
     49600   297.13473      1441.0945     -1515.6559      28734.809      30.629232      1.0928246    
     49700   303.04048      1399.8919     -2121.6778      28734.809      30.629232      1.0928246    
     49800   305.46715      1410.9591     -2161.4012      28734.809      30.629232      1.0928246    
     49900   307.0962       1469.6796     -2201.1435      28734.809      30.629232      1.0928246    
     50000   315.52105      1441.0291     -1613.609       28734.809      30.629232      1.0928246    
     50100   299.06586      1500.2238     -1824.0554      28734.809      30.629232      1.0928246    
     50200   297.05781      1464.4731     -3214.7657      28734.809      30.629232      1.0928246    
     50300   299.15896      1431.1701     -1218.4325      28734.809      30.629232      1.0928246    
     50400   302.38009      1415.9925     -1199.788       28734.809      30.629232      1.0928246    
     50500   307.92485      1446.118      -2566.5972      28734.809      30.629232      1.0928246    
     50600   309.09134      1470.506      -1555.9857      28734.809      30.629232      1.0928246    
     50700   303.87673      1433.5317      2070.8097      28734.809      30.629232      1.0928246    
     50800   297.21494      1458.5941     -1001.4584      28734.809      30.629232      1.0928246    
     50900   299.21067      1432.009      -1776.7736      28734.809      30.629232      1.0928246    
     51000   300.57612      1429.0304      568.93507      28734.809      30.629232      1.0928246    
     51100   304.95088      1448.5131     -1200.2628      28734.809      30.629232      1.0928246    
     51200   305.71715      1493.8203     -562.44527      28734.809      30.629232      1.0928246    
     51300   304.62162      1472.4648      546.70449      28734.809      30.629232      1.0928246    
     51400   300.14822      1400.6939      399.47423      28734.809      30.629232      1.0928246    
     51500   296.60172      1424.4177     -2552.1134      28734.809      30.629232      1.0928246    
     51600   297.1366       1470.2118     -2817.289       28734.809      30.629232      1.0928246    
     51700   303.04936      1472.5614     -1628.0979      28734.809      30.629232      1.0928246    
     51800   300.41636      1479.7225     -2699.7862      28734.809      30.629232      1.0928246    
     51900   294.79412      1396.9179     -806.11759      28734.809      30.629232      1.0928246    
     52000   289.77035      1458.0184     -2900.6192      28734.809      30.629232      1.0928246    
     52100   298.66065      1461.0268     -2841.0526      28734.809      30.629232      1.0928246    
     52200   298.79925      1503.9392     -2223.0764      28734.809      30.629232      1.0928246    
     52300   298.2815       1474.3447     -139.18943      28734.809      30.629232      1.0928246    
     52400   294.36464      1473.1803     -3042.2024      28734.809      30.629232      1.0928246    
     52500   299.89249      1420.7931     -1843.9098      28734.809      30.629232      1.0928246    
     52600   302.21281      1403.4353      780.27796      28734.809      30.629232      1.0928246    
     52700   294.03646      1454.9589     -530.65936      28734.809      30.629232      1.0928246    
     52800   295.11637      1428.8568     -476.07429      28734.809      30.629232      1.0928246    
     52900   296.70973      1475.0059     -1275.5455      28734.809      30.629232      1.0928246    
     53000   301.452        1507.3389     -1091.6007      28734.809      30.629232      1.0928246    
     53100   305.81736      1448.4099     -430.19391      28734.809      30.629232      1.0928246    
     53200   306.32866      1394.3154     -2270.8689      28734.809      30.629232      1.0928246    
     53300   300.82264      1423.3546     -1936.0181      28734.809      30.629232      1.0928246    
     53400   292.26383      1507.4867      662.46272      28734.809      30.629232      1.0928246    
     53500   296.35647      1483.0757     -419.34983      28734.809      30.629232      1.0928246    
     53600   299.92286      1510.6369     -989.51837      28734.809      30.629232      1.0928246    
     53700   307.39225      1497.0078     -634.74288      28734.809      30.629232      1.0928246    
     53800   305.28679      1437.4965     -2906.5694      28734.809      30.629232      1.0928246    
     53900   293.15248      1477.4404     -3642.6932      28734.809      30.629232      1.0928246    
     54000   295.72004      1476.8283     -2358.6992      28734.809      30.629232      1.0928246    
     54100   302.09238      1461.7453     -2229.5679      28734.809      30.629232      1.0928246    
     54200   302.17261      1501.7092     -5034.9503      28734.809      30.629232      1.0928246    
     54300   312.35245      1404.7062     -1948.0695      28734.809      30.629232      1.0928246    
     54400   296.74963      1445.5095     -4646.6139      28734.809      30.629232      1.0928246    
     54500   289.75567      1472.5517     -2536.759       28734.809      30.629232      1.0928246    
     54600   297.64248      1438.2193     -1934.1253      28734.809      30.629232      1.0928246    
     54700   304.50504      1460.2629     -2045.3646      28734.809      30.629232      1.0928246    
     54800   303.14706      1483.8225     -2537.3016      28734.809      30.629232      1.0928246    
     54900   304.93391      1439.8282     -1407.6607      28734.809      30.629232      1.0928246    
     55000   296.67674      1486.6656     -2692.9482      28734.809      30.629232      1.0928246    
     55100   295.49571      1476.6825     -2290.7457      28734.809      30.629232      1.0928246    
     55200   299.2973       1446.7558     -4294.6699      28734.809      30.629232      1.0928246    
     55300   304.99583      1458.1065     -2314.6943      28734.809      30.629232      1.0928246    
     55400   300.89831      1532.6257     -715.95087      28734.809      30.629232      1.0928246    
     55500   306.24254      1453.3287     -1425.2495      28734.809      30.629232      1.0928246    
     55600   304.82463      1359.884      -1713.2258      28734.809      30.629232      1.0928246    
     55700   301.94154      1367.1497     -2068.2912      28734.809      30.629232      1.0928246    
     55800   301.84343      1411.7314     -1289.7615      28734.809      30.629232      1.0928246    
     55900   306.03381      1439.593      -1240.6843      28734.809      30.629232      1.0928246    
     56000   303.77104      1466.2558     -2283.0696      28734.809      30.629232      1.0928246    
     56100   303.20719      1451.2905     -2082.5044      28734.809      30.629232      1.0928246    
     56200   304.1876       1431.8727     -3144.3217      28734.809      30.629232      1.0928246    
     56300   294.98416      1499.4614     -2231.2207      28734.809      30.629232      1.0928246    
     56400   299.45059      1442.6524     -3205.5482      28734.809      30.629232      1.0928246    
     56500   293.87762      1449.5141     -3614.0256      28734.809      30.629232      1.0928246    
     56600   299.01452      1397.0996     -3159.317       28734.809      30.629232      1.0928246    
     56700   298.80223      1467.4577     -1466.776       28734.809      30.629232      1.0928246    
     56800   302.19653      1496.9145     -1935.0434      28734.809      30.629232      1.0928246    
     56900   306.92238      1427.8429     -3787.1459      28734.809      30.629232      1.0928246    
     57000   305.8193       1366.2043     -1303.7181      28734.809      30.629232      1.0928246    
     57100   299.28844      1421.4596     -1775.7427      28734.809      30.629232      1.0928246    
     57200   298.1381       1450.1276     -1300.6303      28734.809      30.629232      1.0928246    
     57300   296.7648       1485.0219     -881.1668       28734.809      30.629232      1.0928246    
     57400   309.95338      1431.0085     -295.39296      28734.809      30.629232      1.0928246    
     57500   305.89237      1522.2604     -1482.6263      28734.809      30.629232      1.0928246    
     57600   304.4281       1459.74       -2315.8972      28734.809      30.629232      1.0928246    
     57700   299.45461      1429.9801     -1487.1024      28734.809      30.629232      1.0928246    
     57800   299.7507       1417.8721     -1972.8778      28734.809      30.629232      1.0928246    
     57900   293.19949      1508.3838     -2471.0779      28734.809      30.629232      1.0928246    
     58000   300.58957      1504.4037     -833.48021      28734.809      30.629232      1.0928246    
     58100   312.82935      1431.21       -3263.7883      28734.809      30.629232      1.0928246    
     58200   298.52803      1459.3327     -2694.9313      28734.809      30.629232      1.0928246    
     58300   289.92489      1482.7884     -745.02755      28734.809      30.629232      1.0928246    
     58400   299.06632      1433.7907     -1149.9914      28734.809      30.629232      1.0928246    
     58500   303.19815      1464.4497     -932.29081      28734.809      30.629232      1.0928246    
     58600   300.64742      1511.0789     -1731.7152      28734.809      30.629232      1.0928246    
     58700   302.36494      1454.8763     -1362.764       28734.809      30.629232      1.0928246    
     58800   294.2328       1401.8262     -2922.0509      28734.809      30.629232      1.0928246    
     58900   296.91355      1403.4173     -1318.8163      28734.809      30.629232      1.0928246    
     59000   302.75001      1415.4151     -1352.1253      28734.809      30.629232      1.0928246    
     59100   303.88696      1434.9559     -1840.6202      28734.809      30.629232      1.0928246    
     59200   301.87123      1436.4133     -1786.1872      28734.809      30.629232      1.0928246    
     59300   294.53847      1406.6709     -2775.1231      28734.809      30.629232      1.0928246    
     59400   294.24984      1392.9256     -3290.2489      28734.809      30.629232      1.0928246    
     59500   298.88322      1441.7501     -571.71668      28734.809      30.629232      1.0928246    
     59600   301.96531      1451.2771     -2391.3091      28734.809      30.629232      1.0928246    
     59700   301.06003      1462.2536     -3029.7713      28734.809      30.629232      1.0928246    
     59800   298.24874      1473.2944     -378.06458      28734.809      30.629232      1.0928246    
     59900   298.26709      1456.5844     -3214.131       28734.809      30.629232      1.0928246    
     60000   300.85834      1442.6416     -3761.2559      28734.809      30.629232      1.0928246    
     60100   299.73253      1493.2807     -1218.3896      28734.809      30.629232      1.0928246    
     60200   305.14277      1483.6627     -741.97969      28734.809      30.629232      1.0928246    
     60300   311.37462      1462.8147     -1265.819       28734.809      30.629232      1.0928246    
     60400   300.9775       1476.1452     -2658.1971      28734.809      30.629232      1.0928246    
     60500   298.81792      1429.4104      634.8697       28734.809      30.629232      1.0928246    
     60600   301.21343      1425.8762     -981.44562      28734.809      30.629232      1.0928246    
     60700   303.38467      1450.9716     -852.36704      28734.809      30.629232      1.0928246    
     60800   306.78648      1489.7459     -2304.4517      28734.809      30.629232      1.0928246    
     60900   311.89751      1499.0541     -1120.7115      28734.809      30.629232      1.0928246    
     61000   306.60903      1435.2734      683.34317      28734.809      30.629232      1.0928246    
     61100   298.26222      1444.9479     -2690.7311      28734.809      30.629232      1.0928246    
     61200   295.18534      1439.212      -2322.8602      28734.809      30.629232      1.0928246    
     61300   294.66208      1463.3166     -3288.023       28734.809      30.629232      1.0928246    
     61400   296.63842      1536.3026     -669.31265      28734.809      30.629232      1.0928246    
     61500   301.80143      1521.0811      1368.0864      28734.809      30.629232      1.0928246    
     61600   306.49133      1445.1361     -169.13667      28734.809      30.629232      1.0928246    
     61700   297.51103      1464.7054     -785.50655      28734.809      30.629232      1.0928246    
     61800   293.6079       1479.6399     -872.71638      28734.809      30.629232      1.0928246    
     61900   301.3592       1416.1019     -2410.7591      28734.809      30.629232      1.0928246    
     62000   300.22444      1459.3181     -2279.3685      28734.809      30.629232      1.0928246    
     62100   303.22125      1448.8197     -1988.3561      28734.809      30.629232      1.0928246    
     62200   302.30417      1424.1258     -4729.5592      28734.809      30.629232      1.0928246    
     62300   294.42884      1421.3894     -873.16708      28734.809      30.629232      1.0928246    
     62400   291.02908      1441.4576     -491.78127      28734.809      30.629232      1.0928246    
     62500   303.4031       1419.4375     -470.80828      28734.809      30.629232      1.0928246    
     62600   299.84377      1495.9475      1210.8438      28734.809      30.629232      1.0928246    
     62700   299.35776      1476.2351      1568.757       28734.809      30.629232      1.0928246    
     62800   302.37174      1409.2404     -1929.7559      28734.809      30.629232      1.0928246    
     62900   294.29282      1442.2563     -3604.0722      28734.809      30.629232      1.0928246    
     63000   287.493        1404.0454     -3704.3997      28734.809      30.629232      1.0928246    
     63100   288.77087      1399.765      -577.00847      28734.809      30.629232      1.0928246    
     63200   297.01717      1416.6609     -374.0793       28734.809      30.629232      1.0928246    
     63300   302.67019      1404.7742     -2220.1842      28734.809      30.629232      1.0928246    
     63400   307.20897      1371.0918     -1199.2209      28734.809      30.629232      1.0928246    
     63500   292.9598       1482.1642     -199.49184      28734.809      30.629232      1.0928246    
     63600   294.7758       1419.4822      828.71472      28734.809      30.629232      1.0928246    
     63700   295.4939       1368.5711     -2295.9978      28734.809      30.629232      1.0928246    
     63800   297.98265      1383.9401     -2733.5508      28734.809      30.629232      1.0928246    
     63900   297.32706      1484.4985     -2450.4449      28734.809      30.629232      1.0928246    
     64000   307.40106      1416.7186     -88.656946      28734.809      30.629232      1.0928246    
     64100   307.21683      1392.3535     -2253.5605      28734.809      30.629232      1.0928246    
     64200   297.74214      1396.4337     -1959.2469      28734.809      30.629232      1.0928246    
     64300   293.2081       1425.7339     -1084.1068      28734.809      30.629232      1.0928246    
     64400   299.40585      1404.0183      732.35318      28734.809      30.629232      1.0928246    
     64500   301.75668      1424.2352     -860.41183      28734.809      30.629232      1.0928246    
     64600   300.07179      1472.6136     -567.95073      28734.809      30.629232      1.0928246    
     64700   305.09025      1504.6094      91.578392      28734.809      30.629232      1.0928246    
     64800   303.48096      1560.7673      120.84362      28734.809      30.629232      1.0928246    
     64900   304.12387      1432.4345     -1541.8838      28734.809      30.629232      1.0928246    
     65000   299.34043      1410.6326     -293.62479      28734.809      30.629232      1.0928246    
     65100   299.017        1391.5201     -2469.2304      28734.809      30.629232      1.0928246    
     65200   296.12608      1423.9373     -2030.5214      28734.809      30.629232      1.0928246    
     65300   308.757        1369.246      -2872.7231      28734.809      30.629232      1.0928246    
     65400   303.8471       1467.1383     -1531.1965      28734.809      30.629232      1.0928246    
     65500   305.0181       1422.7798     -2001.9765      28734.809      30.629232      1.0928246    
     65600   297.98562      1379.7761     -1134.9612      28734.809      30.629232      1.0928246    
     65700   300.14274      1370.9459     -1467.2523      28734.809      30.629232      1.0928246    
     65800   301.94101      1412.9756     -2368.7165      28734.809      30.629232      1.0928246    
     65900   304.4623       1439.525      -2921.5852      28734.809      30.629232      1.0928246    
     66000   306.76727      1428.7777     -4579.6675      28734.809      30.629232      1.0928246    
     66100   296.97357      1492.4583     -1982.759       28734.809      30.629232      1.0928246    
     66200   299.14918      1460.434      -2974.2717      28734.809      30.629232      1.0928246    
     66300   292.60128      1503.3881     -1991.3473      28734.809      30.629232      1.0928246    
     66400   295.69877      1476.7834     -3681.1454      28734.809      30.629232      1.0928246    
     66500   299.22075      1480.5414     -2710.7394      28734.809      30.629232      1.0928246    
     66600   307.19057      1477.1929     -492.8217       28734.809      30.629232      1.0928246    
     66700   302.71237      1497.8104     -220.40119      28734.809      30.629232      1.0928246    
     66800   299.38473      1425.7665     -1040.5656      28734.809      30.629232      1.0928246    
     66900   293.7836       1470.0736      1153.2061      28734.809      30.629232      1.0928246    
     67000   301.65743      1450.4241     -2081.6557      28734.809      30.629232      1.0928246    
     67100   306.51462      1442.0217     -1416.9383      28734.809      30.629232      1.0928246    
     67200   297.98447      1515.9405     -1368.4574      28734.809      30.629232      1.0928246    
     67300   300.90664      1407.1451     -439.17417      28734.809      30.629232      1.0928246    
     67400   293.13008      1435.4781     -2076.3967      28734.809      30.629232      1.0928246    
     67500   293.60898      1467.8304     -2579.4087      28734.809      30.629232      1.0928246    
     67600   302.9367       1470.7244     -803.49012      28734.809      30.629232      1.0928246    
     67700   303.71975      1470.9944     -329.22715      28734.809      30.629232      1.0928246    
     67800   299.98054      1460.7675     -1450.5593      28734.809      30.629232      1.0928246    
     67900   300.81443      1419.0389      342.81597      28734.809      30.629232      1.0928246    
     68000   295.35977      1438.1883     -1267.9177      28734.809      30.629232      1.0928246    
     68100   303.01727      1374.5944     -1406.4968      28734.809      30.629232      1.0928246    
     68200   304.38869      1458.3123     -2156.8405      28734.809      30.629232      1.0928246    
     68300   306.68741      1464.2083     -1716.8317      28734.809      30.629232      1.0928246    
     68400   298.12815      1462.1747      377.8624       28734.809      30.629232      1.0928246    
     68500   294.30324      1464.3345     -1449.6725      28734.809      30.629232      1.0928246    
     68600   298.24628      1422.5671     -2279.7901      28734.809      30.629232      1.0928246    
     68700   302.63099      1423.1196     -840.83383      28734.809      30.629232      1.0928246    
     68800   316.13923      1397.953      -1104.2096      28734.809      30.629232      1.0928246    
     68900   305.66565      1506.8882     -2707.6047      28734.809      30.629232      1.0928246    
     69000   301.26552      1418.6026     -3144.2592      28734.809      30.629232      1.0928246    
     69100   300.14177      1404.6019     -893.56226      28734.809      30.629232      1.0928246    
     69200   295.73869      1443.6412     -2476.802       28734.809      30.629232      1.0928246    
     69300   296.06809      1475.4057     -1822.2894      28734.809      30.629232      1.0928246    
     69400   305.6792       1425.4411     -1793.4845      28734.809      30.629232      1.0928246    
     69500   301.69423      1501.6249     -4401.6849      28734.809      30.629232      1.0928246    
     69600   301.12907      1481.9389     -1325.8757      28734.809      30.629232      1.0928246    
     69700   294.8981       1445.7869     -3005.5782      28734.809      30.629232      1.0928246    
     69800   295.69316      1437.6798     -1331.8566      28734.809      30.629232      1.0928246    
     69900   304.47209      1416.8236      1028.3402      28734.809      30.629232      1.0928246    
     70000   296.25957      1538.5241     -1678.6654      28734.809      30.629232      1.0928246    
     70100   312.50005      1449.7317      940.05644      28734.809      30.629232      1.0928246    
     70200   303.18993      1589.7633     -594.63686      28734.809      30.629232      1.0928246    
     70300   305.81285      1469.6186     -1330.0863      28734.809      30.629232      1.0928246    
     70400   296.36087      1483.512       1.0464139      28734.809      30.629232      1.0928246    
     70500   301.68805      1403.8139     -2424.2344      28734.809      30.629232      1.0928246    
     70600   297.8778       1424.0955     -2553.0691      28734.809      30.629232      1.0928246    
     70700   293.71209      1456.4369     -1656.6918      28734.809      30.629232      1.0928246    
     70800   301.61664      1420.2194     -1671.9361      28734.809      30.629232      1.0928246    
     70900   309.7454       1422.2478     -479.81232      28734.809      30.629232      1.0928246    
     71000   305.47261      1433.6533     -496.96501      28734.809      30.629232      1.0928246    
     71100   299.17261      1408.8101     -233.79882      28734.809      30.629232      1.0928246    
     71200   298.45406      1406.2749     -22.824018      28734.809      30.629232      1.0928246    
     71300   300.98738      1415.5676     -992.86506      28734.809      30.629232      1.0928246    
     71400   304.26384      1437.97       -279.43068      28734.809      30.629232      1.0928246    
     71500   301.05809      1456.3664     -1024.8961      28734.809      30.629232      1.0928246    
     71600   291.58812      1420.4433     -2059.9962      28734.809      30.629232      1.0928246    
     71700   291.62199      1403.9759     -3708.8556      28734.809      30.629232      1.0928246    
     71800   298.33222      1421.8762     -1728.5148      28734.809      30.629232      1.0928246    
     71900   302.47568      1426.9311     -2118.1712      28734.809      30.629232      1.0928246    
     72000   301.09242      1434.8831     -2426.1056      28734.809      30.629232      1.0928246    
     72100   308.08603      1396.8212     -1077.7186      28734.809      30.629232      1.0928246    
     72200   306.22386      1466.3733     -2457.719       28734.809      30.629232      1.0928246    
     72300   297.87838      1549.6154     -2024.1954      28734.809      30.629232      1.0928246    
     72400   301.25279      1431.0304     -2798.3771      28734.809      30.629232      1.0928246    
     72500   292.70316      1452.6174     -2253.4362      28734.809      30.629232      1.0928246    
     72600   303.04345      1392.0252     -3579.4078      28734.809      30.629232      1.0928246    
     72700   299.49851      1483.7094     -2549.9402      28734.809      30.629232      1.0928246    
     72800   303.81329      1449.1477     -2236.4476      28734.809      30.629232      1.0928246    
     72900   301.52695      1454.9824     -2691.5807      28734.809      30.629232      1.0928246    
     73000   303.26009      1419.5801     -1295.1542      28734.809      30.629232      1.0928246    
     73100   298.99785      1425.3485     -1954.6244      28734.809      30.629232      1.0928246    
     73200   292.91909      1445.4526     -4462.4634      28734.809      30.629232      1.0928246    
     73300   297.21802      1422.2673     -2948.8669      28734.809      30.629232      1.0928246    
     73400   300.32747      1480.7569     -2302.5199      28734.809      30.629232      1.0928246    
     73500   307.11003      1450.3827     -4028.5879      28734.809      30.629232      1.0928246    
     73600   295.96802      1500.7299     -1891.8882      28734.809      30.629232      1.0928246    
     73700   294.26264      1440.5329     -729.33098      28734.809      30.629232      1.0928246    
     73800   297.96483      1416.6082     -2952.4176      28734.809      30.629232      1.0928246    
     73900   306.50662      1372.3501     -1300.7431      28734.809      30.629232      1.0928246    
     74000   294.61001      1494.2831     -735.72519      28734.809      30.629232      1.0928246    
[...]
    983500   308.20219      1212.3405     -1888.075       26179.962      29.693154      1.1994711    
    983600   301.6018       1300.5567      75.727324      26215.023      29.706404      1.1978669    
    983700   305.94534      1194.3493     -827.67347      26131.44       29.674799      1.2016983    
    983800   297.05802      1189.3111      1109.5224      25797.546      29.547867      1.2172517    
    983900   296.69229      1200.0349      986.99268      26011.186      29.629209      1.207254     
    984000   300.64177      1226.8151     -439.39511      26196.654      29.699464      1.1987068    
    984100   301.51205      1266.4288     -1470.3725      26226.715      29.71082       1.1973328    
    984200   302.81929      1266.4868     -1041.936       26033.597      29.637716      1.2062147    
    984300   299.25312      1202.1141      103.67121      26186.172      29.695502      1.1991866    
    984400   291.51938      1217.441       52.461275      26051.966      29.644685      1.2053642    
    984500   305.03504      1144.3602     -736.30417      26242.458      29.716763      1.1966145    
    984600   304.0701       1224.8671     -955.59228      26080.329      29.655439      1.2040534    
    984700   305.44378      1209.8604     -1224.0441      26283.229      29.732145      1.1947583    
    984800   302.77093      1184.2975      992.01439      26247.359      29.718613      1.1963911    
    984900   301.04258      1108.9319     -489.01933      26046.507      29.642614      1.2056168    
    985000   296.81857      1163.8395     -1210.9158      26112.677      29.667694      1.2025618    
    985100   295.33204      1215.8463     -419.47701      26050.601      29.644167      1.2054274    
    985200   305.51176      1178.1672      2016.5695      26064.659      29.649498      1.2047772    
    985300   300.09108      1254.9653     -3142.4421      26206.499      29.703184      1.1982565    
    985400   301.06384      1247.2891      1694.3184      26301.293      29.738955      1.1939378    
    985500   299.63866      1193.2149      1445.2206      26071.873      29.652233      1.2044439    
    985600   297.0788       1172.3348     -1489.3997      25966.579      29.612262      1.2093278    
    985700   300.62566      1169.4485      556.04236      26160.738      29.685885      1.2003525    
    985800   304.636        1219.2598     -1176.2408      26025.82       29.634764      1.2065751    
    985900   306.56404      1216.2571      393.63262      25907.313      29.589716      1.2120943    
    986000   303.3208       1208.0035      1197.626       25956.171      29.608305      1.2098128    
    986100   297.66593      1224.3516      1739.4854      25836.975      29.562913      1.2153941    
    986200   304.00936      1159.6242     -1338.4719      26044.847      29.641984      1.2056937    
    986300   300.90844      1208.2112     -595.63297      26238.416      29.715237      1.1967989    
    986400   306.2702       1222.6654     -353.41951      26277.12       29.729841      1.1950361    
    986500   307.37883      1309.6668      1506.9653      26171.409      29.689921      1.1998631    
    986600   309.15784      1250.6048     -1924.2006      26221.597      29.708887      1.1975665    
    986700   304.22085      1226.3581      476.79302      26142.592      29.67902       1.2011857    
    986800   304.17964      1187.7258      2289.2766      25935.644      29.600498      1.2107703    
    986900   296.79373      1211.8363      2039.2162      25982.782      29.61842       1.2085737    
    987000   295.55397      1219.632      -96.415854      25973.945      29.615062      1.2089849    
    987100   303.62526      1233.5028      103.88341      26128.698      29.673761      1.2018244    
    987200   304.8471       1272.4516     -546.96003      26101.706      29.663539      1.2030672    
    987300   300.62428      1282.6444      805.40349      25852.961      29.569009      1.2146426    
    987400   296.92609      1210.5218      910.14336      26054.94       29.645812      1.2052266    
    987500   293.08661      1231.6125      75.373954      25925.519      29.596645      1.2112431    
    987600   297.50115      1228.0073      597.52895      25975.59       29.615687      1.2089083    
    987700   304.16006      1211.2003      881.47263      25835.777      29.562456      1.2154505    
    987800   302.92023      1224.2132     -1416.7545      25980.909      29.617708      1.2086608    
    987900   294.73258      1198.7981      1313.5937      25977.028      29.616233      1.2088414    
    988000   297.54974      1143.0772     -12.410888      26000.701      29.625227      1.2077408    
    988100   298.28283      1183.5657     -1087.2372      26029.601      29.636199      1.2063999    
    988200   300.03481      1217.6918      526.37537      25873.364      29.576785      1.2136847    
    988300   298.59557      1236.1281     -1646.5263      25964.977      29.611653      1.2094025    
    988400   299.65488      1212.1963     -629.29229      25992.141      29.621975      1.2081385    
    988500   299.31243      1186.253      -920.10709      25913.111      29.591923      1.2118231    
    988600   288.7788       1221.5553     -1438.0322      26047.348      29.642933      1.2055779    
    988700   297.14531      1129.9437     -1758.0597      26096.73       29.661654      1.2032966    
    988800   299.97059      1203.4553     -1023.6567      26172.742      29.690424      1.199802     
    988900   303.41981      1217.0604     -1201.2788      26006.672      29.627495      1.2074635    
    989000   303.19657      1221.1019     -1301.3077      25932.86       29.599438      1.2109003    
    989100   299.04672      1203.7146      2254.4327      26010.646      29.629004      1.207279     
    989200   296.14867      1154.6119      253.40786      25964.798      29.611585      1.2094108    
    989300   296.76594      1117.7145     -1950.6335      25828.388      29.559637      1.2157982    
    989400   301.29295      1182.4636      688.65648      26038.804      29.639692      1.2059735    
    989500   301.58248      1244.2139      1363.6229      25888.538      29.582566      1.2129734    
    989600   297.39282      1286.7952     -752.77089      25975.273      29.615566      1.2089231    
    989700   296.05529      1250.1015      2537.3092      25808.412      29.552015      1.2167392    
    989800   301.51702      1128.7367      811.43201      25954.577      29.607699      1.2098871    
    989900   298.54077      1142.5198      2911.0403      25774.52       29.539073      1.2183392    
    990000   302.26256      1209.7367      2507.5322      25744.875      29.527744      1.2197421    
    990100   305.1426       1244.4136     -2042.6301      25881.395      29.579845      1.2133082    
    990200   302.56259      1222.7297     -1283.6344      26051.746      29.644601      1.2053744    
    990300   297.0043       1208.9644      1272.1282      25800.937      29.549161      1.2170918    
    990400   295.65513      1213.9345     -1162.0091      25902.463      29.587869      1.2123213    
    990500   299.25358      1246.2164     -2487.8037      26020.189      29.632626      1.2068363    
    990600   307.94604      1260.9531     -785.96052      26100.599      29.66312       1.2031182    
    990700   309.33033      1207.801       2181.4824      26101.111      29.663314      1.2030947    
    990800   302.30761      1208.7601     -1555.0948      26108.587      29.666146      1.2027501    
    990900   297.62947      1212.2438     -787.36605      25919.213      29.594245      1.2115378    
    991000   299.52998      1173.9444     -0.58457477     25815.181      29.554598      1.2164202    
    991100   293.95567      1192.3072     -143.44021      25845.802      29.566279      1.214979     
    991200   296.73445      1146.97        297.05579      26000.617      29.625195      1.2077447    
    991300   297.84363      1167.1267      1741.7288      25843.814      29.565521      1.2150725    
    991400   302.87388      1207.9955      1894.6211      26180.479      29.69335       1.1994474    
    991500   306.08412      1215.0299     -295.91714      26179.493      29.692977      1.1994926    
    991600   298.67343      1251.1583      1273.286       25816.859      29.555239      1.2163411    
    991700   292.4569       1216.1055      760.70638      26054.127      29.645504      1.2052642    
    991800   292.8276       1192.5971     -1170.3697      25961.877      29.610474      1.2095469    
    991900   290.74365      1234.3573     -982.24094      25983.017      29.618509      1.2085628    
    992000   295.54192      1217.5756      2200.3181      25780.894      29.541508      1.2180379    
    992100   303.39219      1167.2209     -1118.4159      26011.21       29.629218      1.2072529    
    992200   300.37625      1225.2487     -206.47448      26084.501      29.65702       1.2038608    
    992300   308.90236      1182.1494      1474.9177      25977.285      29.616331      1.2088295    
    992400   304.48636      1198.8118     -464.93536      26021.305      29.63305       1.2067845    
    992500   299.12887      1148.0081     -677.47785      25782.641      29.542175      1.2179554    
    992600   291.92631      1191.4777      1142.6274      25820.012      29.556441      1.2161926    
    992700   297.99073      1202.7543      1523.7331      25953.919      29.607448      1.2099178    
    992800   297.60487      1259.8976      1002.978       26065.615      29.649861      1.204733     
    992900   301.24901      1221.0001     -1927.678       26346.155      29.755854      1.1919047    
    993000   296.08556      1252.1392      976.00745      25993.083      29.622333      1.2080948    
    993100   300.14726      1220.7104      444.19438      26044.448      29.641833      1.2057122    
    993200   305.70002      1180.1756      401.81598      26087.625      29.658204      1.2037166    
    993300   299.82436      1225.3035     -1116.7494      26249.435      29.719396      1.1962965    
    993400   303.42828      1197.3072     -608.42742      26156.984      29.684465      1.2005248    
    993500   301.67302      1225.5314      1421.2639      26023.052      29.633713      1.2067035    
    993600   298.76779      1241.0714     -784.53693      26167.382      29.688397      1.2000477    
    993700   293.36853      1232.7581     -284.52917      26024.074      29.634101      1.2066561    
    993800   293.44891      1191.6239      1363.789       26063.296      29.648981      1.2048402    
    993900   292.94004      1234.2951     -2670.2607      26298.536      29.737916      1.1940629    
    994000   305.48202      1221.5847      788.77011      26016.108      29.631077      1.2070256    
    994100   298.89649      1269.6444     -532.62556      26174.906      29.691243      1.1997028    
    994200   299.59238      1209.1035      1207.4654      26072.539      29.652486      1.2044131    
    994300   292.22451      1215.5957     -1195.0449      25954.867      29.607809      1.2098736    
    994400   293.81987      1219.2297     -3472.2279      26155.209      29.683793      1.2006062    
    994500   297.12511      1217.4503      1778.6899      26106.59       29.665389      1.2028422    
    994600   298.56242      1227.3036      457.64518      26111.977      29.66743       1.202594     
    994700   300.77314      1234.0386      371.04935      26301.877      29.739175      1.1939113    
    994800   301.44161      1245.7268     -253.80371      26129.676      29.674131      1.2017794    
    994900   300.56811      1256.2684      661.47181      26144.735      29.67983       1.2010872    
    995000   299.94609      1216.5561     -1640.6976      26142.94       29.679151      1.2011697    
    995100   301.16529      1146.5086      1474.0581      25932.878      29.599445      1.2108994    
    995200   295.26126      1185.2171      358.09148      25993.21       29.622382      1.2080888    
    995300   298.90735      1231.2073     -2848.2318      25998.513      29.624396      1.2078424    
    995400   310.62463      1191.7213     -307.15265      26158.675      29.685104      1.2004472    
    995500   297.904        1272.8394     -2553.0489      26349.896      29.757262      1.1917356    
    995600   295.78786      1243.214       831.61897      26332.596      29.750748      1.1925185    
    995700   298.90917      1175.4649      1249.876       26114.531      29.668397      1.2024764    
    995800   285.67433      1226.9946     -1404.5427      25972.82       29.614634      1.2090372    
    995900   295.27283      1137.4663     -1993.0946      26030.285      29.636459      1.2063682    
    996000   300.24972      1191.8316      188.60165      25997.061      29.623844      1.2079099    
    996100   301.03659      1227.0985     -550.29815      26196.487      29.699401      1.1987144    
    996200   302.51649      1233.1037     -175.46616      26012.5        29.629707      1.207193     
    996300   306.13398      1193.6394     -1686.865       26208.32       29.703872      1.1981732    
    996400   293.37724      1234.2653      2262.6249      26164.489      29.687304      1.2001804    
    996500   290.20641      1213.2702     -2446.8317      26240.055      29.715856      1.1967242    
    996600   302.36749      1164.8388     -1388.9227      26173.855      29.690845      1.199751     
    996700   299.2588       1256.2446     -468.94826      26156.417      29.68425       1.2005508    
    996800   301.15366      1239.3031      176.64183      26013.559      29.63011       1.2071438    
    996900   300.09054      1224.2679      113.12582      26169.374      29.689151      1.1999564    
    997000   306.77195      1121.7347      621.79362      26087.977      29.658337      1.2037004    
    997100   292.14379      1180.7895     -2518.8223      26010.315      29.628878      1.2072944    
    997200   290.73062      1166.2516      943.84793      25838.993      29.563682      1.2152992    
    997300   298.07248      1207.1266     -1248.209       26025.096      29.634489      1.2066087    
    997400   302.19746      1212.7313      1121.8763      25680.76       29.503211      1.2227873    
    997500   296.94332      1246.1481     -731.16983      25959.666      29.609634      1.2096499    
    997600   297.60092      1204.6622     -171.2058       25733.518      29.523401      1.2202804    
    997700   300.78543      1120.291      -2646.185       25919.569      29.594381      1.2115212    
    997800   289.3199       1168.7406      823.09428      25834.348      29.561911      1.2155177    
    997900   293.89552      1168.0486      114.02963      25812.902      29.553728      1.2165276    
    998000   301.89099      1207.0675      1088.18        26073.333      29.652787      1.2043764    
    998100   301.76724      1252.2217     -2868.0376      26254.619      29.721353      1.1960603    
    998200   301.39754      1274.6382     -474.85255      26050.936      29.644294      1.2054119    
    998300   307.30892      1171.4054      1811.4854      25857.693      29.570813      1.2144203    
    998400   300.41365      1148.3746     -391.75911      26029.004      29.635973      1.2064275    
    998500   290.72721      1239.0426     -2116.116       26061.604      29.64834       1.2049184    
    998600   294.49486      1257.212       338.227        25931.198      29.598806      1.2109779    
    998700   298.68096      1250.6952     -22.939593      26208.482      29.703933      1.1981658    
    998800   303.22599      1207.7079     -1517.0924      26287.953      29.733926      1.1945436    
    998900   298.11575      1245.5878      566.39846      26078.691      29.654818      1.204129     
    999000   300.91202      1211.3065      31.088942      26101.15       29.663328      1.2030929    
    999100   299.80965      1211.5688      401.93636      26113.641      29.66806       1.2025174    
    999200   297.38         1239.5865     -1218.0618      25991.455      29.621715      1.2081704    
    999300   293.82062      1312.9266      959.42329      25862.634      29.572696      1.2141883    
    999400   305.09398      1250.0818      274.67594      26036.633      29.638867      1.2060741    
    999500   298.38343      1263.1        -239.20212      26078.4        29.654707      1.2041424    
    999600   295.11035      1219.8805     -1442.3252      26113.839      29.668135      1.2025082    
    999700   295.56209      1219.1121      984.33775      25980.033      29.617375      1.2087016    
    999800   305.21452      1176.5335     -1665.5837      25902.395      29.587843      1.2123245    
    999900   308.92033      1277.9441      782.74884      26039.774      29.640059      1.2059286    
   1000000   308.74173      1277.1253      822.69434      26156.131      29.684142      1.2005639    
   1000100   299.30967      1277.713       1248.9994      26011.297      29.629251      1.2072488    
   1000200   299.48523      1217.7442      108.86921      26023.959      29.634058      1.2066614    
   1000300   297.72042      1202.2395     -1570.5233      26047.337      29.642929      1.2055784    
   1000400   301.31631      1177.8953      1590.0675      25800.418      29.548963      1.2171162    
   1000500   299.37207      1277.0587      215.59774      25754.442      29.531401      1.219289     
   1000600   310.91969      1206.4777     -369.58084      26036.637      29.638869      1.2060739    
   1000700   302.71032      1198.9372     -325.09003      25939.214      29.601856      1.2106036    
   1000800   296.94476      1205.8644      209.30053      25917.587      29.593626      1.2116139    
   1000900   295.91095      1216.0448     -1662.5605      25990.882      29.621497      1.208197     
   1001000   299.80305      1209.0158      4558.3041      25774.922      29.539227      1.2183202    
   1001100   308.03274      1206.9158      16.29543       26012.971      29.629886      1.2071711    
   1001200   307.90352      1255.1561     -1667.2419      25838.973      29.563675      1.2153002    
   1001300   302.43673      1217.6657      1614.456       26038.838      29.639704      1.2059719    
   1001400   296.92037      1193.7316      489.73993      25931.619      29.598966      1.2109582    
   1001500   297.66788      1185.6571      225.24052      26055.28       29.645942      1.2052109    
   1001600   299.73775      1224.5818     -538.42268      26083.777      29.656746      1.2038942    
   1001692   296.1694       1314.2741     -1221.1873      26016.923      29.631387      1.2069877    
Loop time of 4124.61 on 4 procs for 500000 steps with 2988 atoms

Performance: 10.474 ns/day, 2.291 hours/ns, 121.224 timesteps/s
249.2% CPU use with 1 MPI tasks x 4 OpenMP threads

MPI task timing breakdown:
Section |  min time  |  avg time  |  max time  |%varavg| %total
---------------------------------------------------------------
Pair    | 2933.2     | 2933.2     | 2933.2     |   0.0 | 71.11
Bond    | 250.12     | 250.12     | 250.12     |   0.0 |  6.06
Neigh   | 510.38     | 510.38     | 510.38     |   0.0 | 12.37
Comm    | 69.988     | 69.988     | 69.988     |   0.0 |  1.70
Output  | 1.7494     | 1.7494     | 1.7494     |   0.0 |  0.04
Modify  | 352.01     | 352.01     | 352.01     |   0.0 |  8.53
Other   |            | 7.162      |            |       |  0.17

Nlocal:           2988 ave        2988 max        2988 min
Histogram: 1 0 0 0 0 0 0 0 0 0
Nghost:          14686 ave       14686 max       14686 min
Histogram: 1 0 0 0 0 0 0 0 0 0
Neighs:    1.22433e+06 ave 1.22433e+06 max 1.22433e+06 min
Histogram: 1 0 0 0 0 0 0 0 0 0

Total # of neighbors = 1224327
Ave neighs/atom = 409.74799
Ave special neighs/atom = 12.156627
Neighbor list builds = 24175
Dangerous builds = 0
unfix			1
#final

#parameter
neighbor		2.0 bin
Total wall time: 1:58:39
