LAMMPS data file via write_data, version 15 Sep 2022, timestep = 2

3503 atoms
24 atom types
3605 bonds
27 bond types
6733 angles
50 angle types
10611 dihedrals
65 dihedral types

0.001722 32.957384 xlo xhi
0.00652 32.962182 ylo yhi
-0.002365 32.953297 zlo zhi

Masses

1 1.00794
2 15.9994
3 15.9994
4 15.9994
5 28.085501
6 12.0107
7 12.0107
8 1.00794
9 15.9994
10 15.9994
11 12.0107
12 1.00794
13 12.0107
14 1.00794
15 15.9994
16 15.9994
17 1.00794
18 12.0107
19 12.0107
20 1.00794
21 1.00794
22 1.00794
23 1.00794
24 1.00794

Pair Coeffs # lj/cut

1 1 1
2 1 1
3 1 1
4 1 1
5 1 1
6 1 1
7 1 1
8 1 1
9 1 1
10 1 1
11 1 1
12 1 1
13 1 1
14 1 1
15 1 1
16 1 1
17 1 1
18 1 1
19 1 1
20 1 1
21 1 1
22 1 1
23 1 1
24 1 1

Atoms # full

158 1 19 0 5.26933 2.622736 0.580289 0 0 0
160 1 21 0 5.159595 2.325665 1.61174 0 0 0
162 1 23 0 4.514009 0.856294 0.49336 0 0 0
164 1 18 0 4.286746 3.742349 0.14211 0 0 0
165 1 19 0 3.70058 4.493313 1.395819 0 0 0
167 1 21 0 4.502278 5.017972 1.858415 0 0 0
168 1 3 0 3.119235 3.508809 2.176271 0 0 0
169 1 23 0 2.226016 3.741788 2.156302 0 0 0
170 1 24 0 1.968074 5.18622 0.225731 0 0 0
171 1 18 0 2.831585 5.587305 0.847407 0 0 0
173 1 1 0 3.455984 6.286937 0.275145 0 0 0
175 1 3 0 1.195165 6.230628 2.526563 0 0 0
176 1 23 0 1.449264 6.281606 3.454778 0 0 0
792 2 21 0 0.005622 4.951312 5.88256 0 0 0
797 2 19 0 2.390715 5.874286 6.209995 0 0 0
799 2 21 0 2.16247 5.162903 5.315491 0 0 0
804 2 19 0 4.538213 4.933987 5.566589 0 0 0
806 2 21 0 4.062819 5.180087 4.579393 0 0 0
807 2 3 0 4.531452 3.568386 5.961549 0 0 0
808 2 23 0 3.812864 3.139978 5.468919 0 0 0
809 2 24 0 6.474026 5.201647 6.471684 0 0 0
810 2 18 0 6.026516 5.41947 5.493391 0 0 0
812 2 1 0 6.076108 6.515771 5.392154 0 0 0
813 2 21 0 6.553584 3.654234 4.361712 0 0 0
815 2 23 0 6.058079 5.85836 3.174562 0 0 0
890 2 21 0 0.202831 2.346833 5.271679 0 0 0
892 2 23 0 0.135836 3.926335 3.979619 0 0 0
893 2 24 0 1.493878 0.572172 4.580647 0 0 0
894 2 18 0 1.283162 1.299757 3.862475 0 0 0
895 2 19 0 1.160361 0.628037 2.457227 0 0 0
896 2 1 0 2.126315 1.943167 3.939562 0 0 0
898 2 3 0 0.887648 1.582319 1.404254 0 0 0
899 2 23 0 1.138451 1.203953 0.553445 0 0 0
900 2 24 0 3.171407 0.550895 2.011214 0 0 0
917 2 1 0 6.549251 0.04996 3.480813 0 0 0
142 1 24 0 10.996167 1.578347 2.512082 0 0 0
143 1 18 0 10.444483 0.793864 1.940868 0 0 0
144 1 19 0 10.169628 1.347768 0.515494 0 0 0
145 1 1 0 9.489765 0.63481 2.516223 0 0 0
147 1 3 0 11.38061 1.98281 0.0013 0 0 0
150 1 18 0 9.061212 2.409993 0.672847 0 0 0
151 1 19 0 7.661176 2.040534 1.104296 0 0 0
152 1 1 0 9.36874 3.180301 1.354934 0 0 0
153 1 21 0 7.577116 2.242618 2.193216 0 0 0
154 1 3 0 7.376418 0.689504 0.815511 0 0 0
157 1 18 0 6.712265 2.885285 0.250901 0 0 0
159 1 1 0 6.931018 3.937166 0.449953 0 0 0
811 2 19 0 6.901774 4.745126 4.464725 0 0 0
814 2 3 0 6.878387 5.391958 3.210257 0 0 0
816 2 24 0 8.444198 5.90293 5.239999 0 0 0
817 2 18 0 8.367746 4.869294 4.912682 0 0 0
818 2 19 0 8.86251 3.906935 6.016569 0 0 0
819 2 1 0 9.062771 4.870142 3.963829 0 0 0
822 2 23 0 10.602979 4.786487 5.95716 0 0 0
823 2 24 0 10.300075 2.753409 4.855516 0 0 0
824 2 18 0 9.324488 2.622849 5.42244 0 0 0
825 2 19 0 9.377454 1.485302 6.498799 0 0 0
826 2 1 0 8.64246 2.262025 4.588928 0 0 0
828 2 3 0 10.469653 0.713634 6.006799 0 0 0
833 2 1 0 7.339529 1.048502 6.072521 0 0 0
2147 4 21 0 8.221256 6.543814 0.203161 0 0 0
2160 4 1 0 10.596513 6.046647 0.372508 0 0 0
2164 4 24 0 11.713926 5.133957 1.825803 0 0 0
2165 4 18 0 12.64385 5.721679 1.736855 0 0 0
2167 4 1 0 13.098364 5.792705 2.705873 0 0 0
134 1 23 0 14.892071 0.287166 3.846729 0 0 0
2166 4 19 0 13.530906 4.902656 0.818371 0 0 0
2168 4 21 0 14.415689 5.536244 0.529299 0 0 0
2171 4 24 0 13.441592 2.813761 0.950188 0 0 0
2172 4 18 0 14.075671 3.657585 1.39644 0 0 0
2173 4 19 0 15.564862 3.538285 1.031656 0 0 0
2174 4 1 0 13.958822 3.609609 2.462436 0 0 0
2175 4 21 0 16.014505 4.549685 1.012343 0 0 0
2176 4 3 0 16.288008 2.77684 2.080775 0 0 0
2177 4 23 0 16.85112 3.401726 2.587056 0 0 0
2196 4 21 0 18.921335 2.728105 1.683559 0 0 0
2204 4 3 0 18.758965 1.248182 4.204603 0 0 0
2205 4 23 0 18.493544 0.345935 3.957579 0 0 0
2299 4 19 0 14.047079 6.430324 6.484389 0 0 0
2302 4 3 0 13.592557 5.366092 5.591378 0 0 0
2303 4 23 0 13.768111 4.468575 5.988711 0 0 0
2308 4 21 0 15.633393 6.035085 4.411818 0 0 0
2315 4 21 0 16.954628 6.541229 2.54128 0 0 0
2792 4 3 0 18.775484 3.853474 5.971217 0 0 0
2793 4 23 0 18.510181 4.64977 5.506689 0 0 0
2794 4 24 0 16.386478 3.196738 5.659752 0 0 0
2799 4 3 0 15.81644 0.678166 6.285699 0 0 0
2800 4 23 0 16.719599 0.472672 5.934984 0 0 0
2805 4 21 0 13.862257 1.835962 6.143322 0 0 0
3 1 19 0 24.46847 2.135634 0.335249 0 0 0
6 1 21 0 23.561129 2.702133 0.105743 0 0 0
7 1 10 0 25.541447 3.072091 0.165745 0 0 0
9 1 24 0 23.615471 1.193892 2.18847 0 0 0
10 1 18 0 24.455038 1.698103 1.833444 0 0 0
11 1 19 0 25.719414 0.974766 2.174496 0 0 0
12 1 1 0 24.232378 2.628786 2.436169 0 0 0
13 1 21 0 26.330347 0.814816 1.290411 0 0 0
2193 4 18 0 20.115 2.253685 0.144585 0 0 0
2194 4 19 0 19.983925 2.474831 1.633415 0 0 0
2197 4 3 0 20.803627 3.666417 1.954638 0 0 0
2198 4 23 0 20.332535 4.433217 2.304498 0 0 0
2199 4 24 0 21.408875 1.117186 2.337062 0 0 0
2200 4 18 0 20.386726 1.301085 2.468349 0 0 0
2201 4 19 0 20.085958 1.379716 3.957206 0 0 0
2202 4 1 0 19.895283 0.446221 2.050253 0 0 0
2203 4 21 0 20.398523 2.332583 4.366065 0 0 0
2206 4 24 0 21.904945 0.108249 4.170471 0 0 0
2207 4 18 0 20.963043 0.34256 4.648765 0 0 0
2208 4 19 0 21.406816 0.628218 6.106664 0 0 0
2213 4 24 0 22.787506 2.30016 6.115869 0 0 0
2214 4 18 0 22.811129 1.280298 6.18757 0 0 0
2216 4 1 0 23.365791 0.874924 5.343655 0 0 0
3094 20 13 0 22.715385 6.112349 5.596093 0 0 0
3095 20 7 0 23.848871 5.203769 6.049562 0 0 0
3096 20 7 0 24.592701 4.586602 4.851988 0 0 0
3097 20 8 0 23.342606 4.417235 6.567605 0 0 0
3099 20 7 0 25.926813 5.257072 4.562064 0 0 0
3100 20 8 0 23.914003 4.6037 3.98 0 0 0
3101 20 8 0 24.738676 3.465967 4.991569 0 0 0
3102 20 13 0 25.93289 5.502411 3.075745 0 0 0
3104 20 8 0 25.979288 6.189197 5.135678 0 0 0
3106 20 8 0 21.669434 5.682294 5.457173 0 0 0
14 1 10 0 26.421427 1.785959 3.106824 0 0 0
753 2 24 0 30.923594 0.95493 0.062473 0 0 0
758 2 3 0 28.982487 2.854355 0.290675 0 0 0
759 2 23 0 29.30414 2.262206 0.934965 0 0 0
763 2 1 0 31.133566 3.763273 1.040291 0 0 0
768 2 18 0 31.576267 5.937329 0.605754 0 0 0
769 2 19 0 30.354902 6.539221 1.292921 0 0 0
770 2 1 0 32.298206 5.501916 1.217389 0 0 0
774 2 24 0 30.68733 5.038009 2.825205 0 0 0
775 2 18 0 29.954182 5.787593 2.592273 0 0 0
777 2 1 0 28.972826 5.339782 2.435132 0 0 0
778 2 21 0 29.208673 6.232396 4.52332 0 0 0
783 2 19 0 30.889175 6.508012 6.001468 0 0 0
784 2 1 0 31.90391 6.548123 4.107963 0 0 0
785 2 21 0 30.612024 5.492346 6.051153 0 0 0
874 2 19 0 28.770496 0.986076 6.560915 0 0 0
877 2 3 0 27.615349 1.64447 6.058837 0 0 0
878 2 23 0 27.653372 2.465882 6.556338 0 0 0
879 2 24 0 29.055214 0.315488 4.550616 0 0 0
880 2 18 0 29.633518 0.591438 5.409122 0 0 0
881 2 19 0 30.629025 1.7126 5.107129 0 0 0
883 2 21 0 31.105783 1.975102 6.058315 0 0 0
884 2 3 0 30.086376 2.872663 4.454145 0 0 0
885 2 23 0 29.163212 2.76987 4.364847 0 0 0
886 2 24 0 31.377041 1.138652 3.245092 0 0 0
887 2 18 0 31.784292 1.170097 4.288416 0 0 0
888 2 19 0 32.952488 2.108424 4.266408 0 0 0
889 2 1 0 32.133507 0.224576 4.667944 0 0 0
891 2 3 0 32.800686 3.235369 3.427455 0 0 0
3103 20 8 0 26.851528 4.763056 4.882655 0 0 0
3108 20 8 0 26.600403 4.93249 2.329747 0 0 0
172 1 19 0 2.390798 6.626704 1.849614 0 0 0
174 1 21 0 3.28353 6.691 2.561873 0 0 0
177 1 24 0 1.627706 8.089321 0.24427 0 0 0
178 1 18 0 2.248326 8.044523 1.22626 0 0 0
179 1 19 0 1.585937 8.895294 2.32539 0 0 0
180 1 1 0 3.186532 8.428392 0.978753 0 0 0
181 1 21 0 1.53512 8.562783 3.362927 0 0 0
182 1 3 0 0.178638 8.900397 2.011623 0 0 0
184 1 24 0 1.242568 11.022717 2.662957 0 0 0
185 1 18 0 2.034448 10.357173 2.221514 0 0 0
186 1 19 0 3.385811 10.694696 2.872454 0 0 0
187 1 1 0 2.081882 10.616069 1.116593 0 0 0
188 1 21 0 3.399389 9.881503 3.655177 0 0 0
189 1 3 0 3.317068 11.898517 3.557602 0 0 0
190 1 23 0 4.282201 12.125681 3.70414 0 0 0
191 1 24 0 4.739744 11.571494 1.586684 0 0 0
192 1 18 0 4.57011 10.550835 1.96424 0 0 0
193 1 19 0 5.667205 10.016601 2.856477 0 0 0
194 1 1 0 4.488155 9.873693 1.009341 0 0 0
195 1 21 0 5.521088 10.495405 3.835234 0 0 0
196 1 3 0 5.586782 8.62858 2.998202 0 0 0
197 1 23 0 5.529491 8.416733 3.946076 0 0 0
223 1 21 0 4.641265 10.202255 6.202872 0 0 0
230 1 21 0 2.500139 11.654722 6.568552 0 0 0
236 1 1 0 1.286289 9.30433 6.512098 0 0 0
237 1 21 0 0.255101 12.049819 6.464031 0 0 0
239 1 23 0 0.676316 10.552937 4.783414 0 0 0
800 2 3 0 2.292653 7.259648 5.878451 0 0 0
801 2 23 0 3.101737 7.434833 5.367655 0 0 0
1584 3 1 0 3.495828 12.409163 0.03366 0 0 0
198 1 24 0 7.037999 11.035583 1.774625 0 0 0
199 1 18 0 7.073148 10.215158 2.387007 0 0 0
200 1 19 0 7.972064 10.695961 3.526452 0 0 0
201 1 1 0 7.463213 9.413377 1.778318 0 0 0
202 1 21 0 7.411945 11.234214 4.359119 0 0 0
203 1 3 0 8.799506 11.613648 2.880799 0 0 0
204 1 23 0 8.415358 12.487283 3.056412 0 0 0
205 1 24 0 9.836344 9.747334 3.600259 0 0 0
206 1 18 0 8.847569 9.611171 4.106847 0 0 0
207 1 19 0 9.00487 9.570922 5.645024 0 0 0
208 1 1 0 8.532199 8.545053 3.753786 0 0 0
209 1 21 0 9.820744 8.833171 5.8304 0 0 0
210 1 3 0 9.395077 10.852085 6.050179 0 0 0
211 1 23 0 9.576933 11.423534 5.333229 0 0 0
213 1 18 0 7.777342 9.061149 6.338673 0 0 0
215 1 1 0 7.073592 8.849655 5.537006 0 0 0
1600 3 3 0 9.802562 12.846045 0.617524 0 0 0
1601 3 23 0 10.190827 12.017817 0.328723 0 0 0
1630 3 24 0 12.535593 11.099235 0.03038 0 0 0
1633 3 1 0 12.804609 12.799436 0.189226 0 0 0
1637 3 24 0 13.019666 10.622779 3.141769 0 0 0
1638 3 18 0 12.932322 11.559088 2.587068 0 0 0
1639 3 19 0 13.138353 12.783941 3.452924 0 0 0
1640 3 1 0 11.9254 11.50809 2.122233 0 0 0
1644 3 24 0 11.754804 11.940219 4.739826 0 0 0
1645 3 18 0 12.086948 12.98269 4.525991 0 0 0
2152 4 19 0 10.031537 8.19275 0.386647 0 0 0
2154 4 21 0 9.511773 8.205397 1.379716 0 0 0
2155 4 3 0 10.810374 9.354612 0.23547 0 0 0
2156 4 23 0 10.54975 9.840901 1.009663 0 0 0
2158 4 18 0 11.027462 7.085233 0.364156 0 0 0
2159 4 19 0 12.196738 7.069793 1.330176 0 0 0
2161 4 21 0 13.019973 7.670664 0.972676 0 0 0
2162 4 3 0 11.754823 7.702596 2.602106 0 0 0
2163 4 23 0 10.941567 7.253877 2.809105 0 0 0
1631 3 18 0 13.309319 11.830131 0.18096 0 0 0
1632 3 19 0 14.0325 11.632525 1.512802 0 0 0
1634 3 21 0 14.847366 12.346391 1.552312 0 0 0
1635 3 3 0 14.659413 10.370417 1.413942 0 0 0
1636 3 23 0 15.382362 10.395799 0.746344 0 0 0
1641 3 21 0 14.096556 12.680924 3.99681 0 0 0
2304 4 24 0 15.023726 8.392529 6.159339 0 0 0
2305 4 18 0 14.632751 7.538603 5.596513 0 0 0
2306 4 19 0 15.724796 7.117593 4.609581 0 0 0
2307 4 1 0 13.782187 7.925714 4.979924 0 0 0
2309 4 3 0 16.973042 7.433548 5.213991 0 0 0
2310 4 23 0 17.425415 6.62221 5.158715 0 0 0
2311 4 24 0 16.007622 8.95911 3.686174 0 0 0
2312 4 18 0 15.635012 8.009275 3.358193 0 0 0
2313 4 19 0 16.479959 7.547431 2.230113 0 0 0
2314 4 1 0 14.628511 8.224843 3.001879 0 0 0
2316 4 3 0 15.646181 7.325644 1.076694 0 0 0
2317 4 23 0 16.241453 6.76593 0.515239 0 0 0
2318 4 24 0 18.117783 8.531178 3.075682 0 0 0
2319 4 18 0 17.601162 8.618086 2.124575 0 0 0
2320 4 19 0 18.635118 8.582603 0.979802 0 0 0
2321 4 1 0 17.160629 9.739158 2.055085 0 0 0
2322 4 21 0 19.092123 9.581832 0.900581 0 0 0
2325 4 24 0 19.456484 6.617487 0.726048 0 0 0
2326 4 18 0 19.627001 7.498189 1.357433 0 0 0
2328 4 1 0 19.480728 7.009151 2.356073 0 0 0
2530 4 19 0 17.864689 12.838278 3.194098 0 0 0
2532 4 21 0 18.886181 13.098074 3.5403 0 0 0
2533 4 3 0 18.12619 11.914404 2.212415 0 0 0
2534 4 23 0 18.589928 11.206364 2.602939 0 0 0
2535 4 24 0 16.432247 11.407619 3.868014 0 0 0
2536 4 18 0 16.890123 12.288358 4.250151 0 0 0
2537 4 19 0 17.471441 12.005729 5.623785 0 0 0
2538 4 1 0 16.053041 13.007185 4.477595 0 0 0
2539 4 21 0 17.636948 13.037812 6.110106 0 0 0
2540 4 3 0 18.64142 11.289286 5.47539 0 0 0
2541 4 23 0 19.31818 11.907124 5.76751 0 0 0
2542 4 24 0 16.204567 10.25504 6.165566 0 0 0
2543 4 18 0 16.451101 11.331161 6.534927 0 0 0
2545 4 1 0 15.503757 11.925655 6.451306 0 0 0
254 1 24 0 25.931221 10.711861 6.291207 0 0 0
259 1 10 0 25.824873 8.719292 5.722178 0 0 0
2327 4 19 0 21.121815 7.792927 1.140286 0 0 0
2329 4 21 0 21.270355 8.476825 0.234165 0 0 0
2330 4 3 0 21.878765 6.626409 0.971257 0 0 0
2331 4 23 0 22.130943 6.723186 0.05535 0 0 0
2332 4 24 0 22.257191 7.868427 2.986475 0 0 0
2333 4 18 0 21.666557 8.571603 2.368416 0 0 0
2334 4 19 0 22.496635 9.79494 2.072304 0 0 0
2335 4 1 0 20.860703 8.905897 3.002814 0 0 0
2336 4 21 0 21.827791 10.599223 1.794747 0 0 0
2337 4 3 0 23.329971 9.539513 0.999869 0 0 0
2338 4 23 0 24.047636 9.106677 1.339019 0 0 0
2339 4 24 0 24.339905 10.031691 3.086407 0 0 0
2340 4 18 0 23.293459 10.220956 3.319257 0 0 0
2341 4 19 0 23.115396 11.674738 3.795342 0 0 0
2342 4 1 0 23.24144 9.47059 4.134972 0 0 0
2343 4 21 0 22.187719 12.137985 3.472473 0 0 0
2344 4 3 0 23.08404 11.648146 5.219291 0 0 0
2345 4 23 0 22.198107 11.687424 5.6448 0 0 0
2346 4 24 0 25.025547 12.177279 2.860684 0 0 0
2347 4 18 0 24.244946 12.635341 3.369083 0 0 0
2349 4 1 0 24.768501 13.093626 4.238452 0 0 0
183 1 23 0 32.779865 9.10795 2.837435 0 0 0
235 1 19 0 32.950603 11.019306 6.555792 0 0 0
238 1 3 0 32.774483 10.57032 5.250029 0 0 0
244 1 21 0 30.434286 11.594017 5.698001 0 0 0
249 1 19 0 28.122324 10.817297 6.202707 0 0 0
251 1 21 0 28.466209 9.962099 5.64412 0 0 0
252 1 3 0 27.81794 11.923353 5.388952 0 0 0
253 1 23 0 27.54018 11.594468 4.514972 0 0 0
767 2 24 0 32.1064 6.796589 0.143296 0 0 0
771 2 21 0 30.675251 7.559806 1.574733 0 0 0
772 2 3 0 29.264832 6.631838 0.399313 0 0 0
773 2 23 0 29.027897 7.585382 0.368029 0 0 0
776 2 19 0 29.823452 6.798801 3.825554 0 0 0
779 2 3 0 29.081717 7.885992 3.360016 0 0 0
780 2 23 0 28.168221 7.668244 3.495117 0 0 0
781 2 24 0 31.459368 8.128235 4.501885 0 0 0
782 2 18 0 31.079712 7.107339 4.604846 0 0 0
791 2 1 0 32.709316 7.571702 6.494337 0 0 0
1989 3 19 0 30.165977 12.256586 1.83348 0 0 0
1991 3 21 0 29.384867 11.946241 1.070691 0 0 0
1992 3 3 0 30.399529 11.19569 2.766613 0 0 0
1993 3 23 0 29.582165 10.916196 3.190418 0 0 0
1994 3 24 0 32.302345 12.009673 1.773882 0 0 0
1995 3 18 0 31.533491 12.540442 1.235705 0 0 0
3379 1 4 0 26.86945 9.43043 0.269315 0 0 0
527 1 24 0 6.519346 13.982147 4.07684 0 0 0
528 1 18 0 6.290198 15.027958 4.3736 0 0 0
529 1 19 0 5.600513 14.833892 5.662608 0 0 0
530 1 1 0 5.652775 15.46757 3.530899 0 0 0
531 1 21 0 4.882321 13.959145 5.599448 0 0 0
534 1 24 0 4.040119 16.336872 5.27415 0 0 0
535 1 18 0 4.805509 16.138983 6.056571 0 0 0
537 1 1 0 5.490197 17.052738 6.051231 0 0 0
1185 2 3 0 4.634178 19.23175 3.921361 0 0 0
1186 2 23 0 5.450549 19.15691 4.47928 0 0 0
1394 2 21 0 0.395133 17.029135 6.539622 0 0 0
1396 2 23 0 0.010859 18.296335 5.013038 0 0 0
1399 2 19 0 1.001527 15.48422 4.325475 0 0 0
1401 2 21 0 0.74588 16.263681 3.516285 0 0 0
1402 2 3 0 1.267067 14.252169 3.796918 0 0 0
1403 2 22 0 1.88102 15.927839 4.824523 0 0 0
1404 2 23 0 2.205987 14.191039 3.98205 0 0 0
1562 3 19 0 1.219711 18.382305 0.577594 0 0 0
1564 3 21 0 0.57671 17.4405 0.626859 0 0 0
1565 3 3 0 1.480599 18.767588 1.943689 0 0 0
1566 3 23 0 0.582041 18.982044 2.24998 0 0 0
1569 3 19 0 3.337776 17.082481 0.600219 0 0 0
1571 3 21 0 2.822753 16.598043 1.503338 0 0 0
1572 3 3 0 4.606705 17.550941 1.081384 0 0 0
1573 3 23 0 4.373062 17.650034 2.020655 0 0 0
1576 3 19 0 4.206343 14.574933 0.402994 0 0 0
1578 3 21 0 3.827408 14.5886 1.462787 0 0 0
1579 3 3 0 5.6111 14.581265 0.510186 0 0 0
1580 3 23 0 5.979789 15.500429 0.475858 0 0 0
508 1 19 0 9.659266 18.630165 5.630704 0 0 0
510 1 21 0 9.769329 17.540319 5.925865 0 0 0
511 1 3 0 10.915677 19.119419 5.199157 0 0 0
513 1 24 0 8.956211 19.60774 3.919636 0 0 0
514 1 18 0 8.747754 18.620327 4.311913 0 0 0
515 1 19 0 9.025126 17.378038 3.433116 0 0 0
516 1 1 0 7.769622 18.705784 4.584567 0 0 0
517 1 21 0 9.954485 17.000793 3.803801 0 0 0
518 1 3 0 9.472173 17.877182 2.138305 0 0 0
519 1 23 0 10.010315 17.15591 1.757088 0 0 0
520 1 24 0 8.178725 15.845037 2.318841 0 0 0
521 1 18 0 7.873224 16.453579 3.187526 0 0 0
522 1 19 0 7.668562 15.636273 4.402161 0 0 0
523 1 1 0 6.96429 17.094326 2.914381 0 0 0
524 1 21 0 7.855942 16.368383 5.228535 0 0 0
525 1 3 0 8.577833 14.526768 4.486022 0 0 0
526 1 23 0 9.389156 14.686093 5.012355 0 0 0
1609 3 24 0 11.526044 15.366015 0.202776 0 0 0
1642 3 3 0 13.066209 13.955213 2.687232 0 0 0
1646 3 19 0 12.724674 13.705277 5.762918 0 0 0
1647 3 1 0 11.155673 13.477586 4.134815 0 0 0
1651 3 24 0 11.97232 15.577226 5.165237 0 0 0
1652 3 18 0 12.869546 15.228848 5.549063 0 0 0
2500 4 24 0 11.619797 19.489727 0.848527 0 0 0
2505 4 3 0 12.760118 17.951225 2.377782 0 0 0
2506 4 23 0 12.857135 17.14768 1.851386 0 0 0
1643 3 23 0 13.890119 14.416849 2.868428 0 0 0
1648 3 21 0 13.668356 13.250669 5.985368 0 0 0
1654 3 1 0 13.625691 15.384071 4.788749 0 0 0
1658 3 24 0 13.591642 17.897665 5.825182 0 0 0
1659 3 18 0 14.267569 17.1334 6.278278 0 0 0
1661 3 1 0 14.972682 16.823879 5.464276 0 0 0
2502 4 19 0 13.498852 19.003847 1.686058 0 0 0
2504 4 21 0 13.922334 18.599236 0.77032 0 0 0
2507 4 24 0 14.323752 18.841627 3.734343 0 0 0
2508 4 18 0 14.555415 19.429792 2.756285 0 0 0
2509 4 19 0 16.066536 19.321238 2.229477 0 0 0
2511 4 21 0 16.785372 19.43536 2.97894 0 0 0
2514 4 24 0 15.953352 17.84481 0.604619 0 0 0
2515 4 18 0 16.287642 17.898479 1.614278 0 0 0
2516 4 19 0 17.753017 17.408215 1.574772 0 0 0
2517 4 1 0 15.697355 17.147932 2.117307 0 0 0
2518 4 21 0 17.950266 17.527805 2.665774 0 0 0
2519 4 3 0 18.620708 18.280537 0.796214 0 0 0
2520 4 23 0 19.515833 17.970388 0.887071 0 0 0
2521 4 24 0 18.555153 16.048861 0.074424 0 0 0
2522 4 18 0 17.891365 15.953502 0.979256 0 0 0
2523 4 19 0 18.422541 14.905357 1.882363 0 0 0
2524 4 1 0 16.950146 15.627449 0.472043 0 0 0
2525 4 21 0 19.050343 14.281574 1.271341 0 0 0
2526 4 3 0 19.217855 15.417355 2.955451 0 0 0
2528 4 24 0 16.543163 13.699074 1.593673 0 0 0
2529 4 18 0 17.230787 14.015088 2.406473 0 0 0
2531 4 1 0 16.521894 14.540714 3.137196 0 0 0
2739 4 18 0 19.767748 19.301275 6.324235 0 0 0
2743 4 3 0 18.72167 17.194792 5.594321 0 0 0
2744 4 23 0 18.010382 17.816351 5.814343 0 0 0
2348 4 19 0 23.727873 13.762922 2.511945 0 0 0
2350 4 21 0 22.907545 14.356733 2.968364 0 0 0
2351 4 3 0 23.349649 13.300834 1.194254 0 0 0
2352 4 23 0 23.943531 13.607765 0.544035 0 0 0
2353 4 24 0 25.731466 14.27763 1.860921 0 0 0
2354 4 18 0 24.883368 14.724008 2.45036 0 0 0
2355 4 19 0 24.72117 16.078621 1.759944 0 0 0
2356 4 1 0 25.240778 14.845265 3.499682 0 0 0
2357 4 21 0 24.103815 15.884845 0.851454 0 0 0
2358 4 3 0 25.896667 16.66246 1.227773 0 0 0
2359 4 23 0 25.689075 16.789112 0.302983 0 0 0
2360 4 24 0 24.820457 17.971727 2.770283 0 0 0
2361 4 18 0 24.081182 17.12673 2.651136 0 0 0
2362 4 19 0 22.752483 17.612307 2.035258 0 0 0
2363 4 1 0 24.02718 16.728882 3.671218 0 0 0
2364 4 21 0 22.254982 18.177532 2.862303 0 0 0
2365 4 3 0 21.843365 16.554203 1.822181 0 0 0
2366 4 23 0 21.055613 16.85754 2.363073 0 0 0
2368 4 18 0 22.837675 18.385117 0.690019 0 0 0
2369 4 19 0 22.217766 19.776831 0.731725 0 0 0
2370 4 1 0 23.838606 18.237669 0.267594 0 0 0
2527 4 23 0 20.111511 15.128652 2.903856 0 0 0
2640 4 24 0 25.803568 17.476479 5.899096 0 0 0
2642 4 19 0 25.76059 19.500685 6.546996 0 0 0
2646 4 23 0 23.950567 18.770496 6.369246 0 0 0
2647 4 24 0 24.824839 19.736717 4.510257 0 0 0
2736 4 3 0 19.872143 19.323322 3.944485 0 0 0
2740 4 19 0 20.032093 17.78484 6.034299 0 0 0
2741 4 1 0 20.787504 19.613031 6.582939 0 0 0
2742 4 21 0 20.769491 17.671467 5.164561 0 0 0
2750 4 3 0 20.768934 15.036451 5.789841 0 0 0
2751 4 23 0 20.158993 14.313133 5.703635 0 0 0
1392 2 19 0 32.476402 16.708263 6.039289 0 0 0
1395 2 3 0 32.207222 17.704008 5.064928 0 0 0
1397 2 24 0 31.973646 14.992065 4.640133 0 0 0
1398 2 18 0 32.755199 15.385749 5.290705 0 0 0
1400 2 1 0 32.823738 14.619676 6.101439 0 0 0
1973 3 24 0 28.508417 18.464836 3.137809 0 0 0
1974 3 18 0 29.611462 18.443048 3.051191 0 0 0
1975 3 19 0 29.973318 17.326759 2.039595 0 0 0
1976 3 1 0 29.913477 18.194092 4.091631 0 0 0
1977 3 21 0 29.550482 17.588251 1.100635 0 0 0
1978 3 3 0 31.380436 17.317095 1.948663 0 0 0
1979 3 23 0 31.656511 16.584105 1.460697 0 0 0
1980 3 24 0 28.49758 16.042484 3.105324 0 0 0
1981 3 18 0 29.502831 16.05521 2.678585 0 0 0
1982 3 19 0 29.518518 14.80372 1.714816 0 0 0
1983 3 1 0 30.163269 15.805475 3.557221 0 0 0
1984 3 21 0 30.401684 14.881887 1.053275 0 0 0
1985 3 3 0 28.422508 14.647203 0.855662 0 0 0
1986 3 23 0 28.758923 14.288544 0.052765 0 0 0
1987 3 24 0 28.562742 13.230692 2.822408 0 0 0
1988 3 18 0 29.601749 13.475327 2.534334 0 0 0
1990 3 1 0 30.091763 13.65965 3.49507 0 0 0
1997 3 1 0 31.882153 13.607882 1.404101 0 0 0
2633 4 24 0 27.385086 15.91524 6.562212 0 0 0
2641 4 18 0 26.417791 18.106335 6.552633 0 0 0
2643 4 1 0 27.478664 18.126787 6.193172 0 0 0
2650 4 1 0 26.586113 19.480665 4.537706 0 0 0
1114 2 21 0 3.953195 25.725578 5.408584 0 0 0
1115 2 3 0 5.883475 25.657213 4.765889 0 0 0
1116 2 23 0 5.574804 24.751442 4.761842 0 0 0
1121 2 21 0 5.185619 26.282801 2.185983 0 0 0
1122 2 3 0 3.212052 25.924572 2.675764 0 0 0
1123 2 23 0 3.529893 25.06901 2.99993 0 0 0
1175 2 19 0 5.684734 22.361694 2.535226 0 0 0
1177 2 21 0 5.731591 23.064653 3.390038 0 0 0
1178 2 3 0 5.458316 23.168732 1.364335 0 0 0
1179 2 23 0 5.150701 24.049828 1.673872 0 0 0
1180 2 24 0 4.810809 20.557497 1.873265 0 0 0
1181 2 18 0 4.583157 21.288179 2.629501 0 0 0
1182 2 19 0 4.384946 20.663723 3.985476 0 0 0
1183 2 1 0 3.607684 21.679119 2.356705 0 0 0
1184 2 21 0 5.081789 21.082485 4.712298 0 0 0
1187 2 24 0 2.986655 20.080866 5.314183 0 0 0
1188 2 18 0 3.027835 20.880514 4.561239 0 0 0
1189 2 19 0 2.681798 22.335579 5.0378 0 0 0
1190 2 1 0 2.277783 20.626955 3.810452 0 0 0
1191 2 21 0 3.509716 23.032454 4.754283 0 0 0
1192 2 3 0 1.608055 22.811533 4.280083 0 0 0
1193 2 23 0 1.980858 23.239805 3.564234 0 0 0
1195 2 18 0 2.342256 22.330103 6.46827 0 0 0
1198 2 21 0 1.848915 24.472065 6.376824 0 0 0
1485 3 19 0 0.669335 23.414169 0.058953 0 0 0
1488 3 3 0 0.634869 23.310505 1.462048 0 0 0
1489 3 23 0 0.991246 22.404678 1.639374 0 0 0
1490 3 24 0 2.534648 24.150608 0.571878 0 0 0
3063 17 8 0 0.677774 26.318472 3.692613 0 0 0
506 1 24 0 9.11365 20.614197 6.414629 0 0 0
512 1 23 0 10.849606 20.054914 5.165677 0 0 0
585 1 19 0 9.248657 24.532812 5.93164 0 0 0
587 1 21 0 8.986445 24.997356 4.972165 0 0 0
588 1 3 0 8.843149 23.169895 5.724189 0 0 0
589 1 23 0 8.055984 23.208487 5.183442 0 0 0
591 1 18 0 10.792173 24.604097 6.092997 0 0 0
592 1 19 0 11.574091 24.140108 4.82967 0 0 0
593 1 1 0 11.068513 25.595669 6.382178 0 0 0
594 1 21 0 11.090356 24.576172 3.95831 0 0 0
595 1 3 0 11.663754 22.711601 4.839044 0 0 0
596 1 23 0 12.320859 22.518074 5.488896 0 0 0
598 1 18 0 12.981889 24.64736 4.819188 0 0 0
600 1 1 0 13.055597 25.755863 4.766985 0 0 0
603 1 23 0 12.907111 24.767347 2.080739 0 0 0
1159 2 24 0 10.288913 24.693087 2.060232 0 0 0
1160 2 18 0 10.052689 25.032234 1.063478 0 0 0
1161 2 19 0 8.639678 24.600611 0.868791 0 0 0
1162 2 1 0 10.640143 24.334953 0.447863 0 0 0
1163 2 21 0 8.045489 25.039038 1.659776 0 0 0
1166 2 24 0 9.543587 22.564682 0.432078 0 0 0
1167 2 18 0 8.614519 23.045004 0.842379 0 0 0
1168 2 19 0 8.177083 22.485828 2.21927 0 0 0
1169 2 1 0 7.812782 22.851183 0.097147 0 0 0
1170 2 21 0 8.070268 23.307077 2.922207 0 0 0
1171 2 3 0 9.191009 21.614214 2.660702 0 0 0
1172 2 23 0 9.969933 22.113008 2.987355 0 0 0
1173 2 24 0 7.033854 20.875845 3.248565 0 0 0
1174 2 18 0 6.997723 21.577564 2.329825 0 0 0
1176 2 1 0 7.016171 20.942495 1.465321 0 0 0
2495 4 19 0 13.014956 21.053822 0.356459 0 0 0
2498 4 3 0 13.1682 22.373661 0.96835 0 0 0
2501 4 18 0 12.458785 20.01335 1.415604 0 0 0
2503 4 1 0 12.022397 20.569777 2.306576 0 0 0
597 1 24 0 13.349458 24.38151 5.813251 0 0 0
599 1 19 0 13.837173 24.131834 3.676003 0 0 0
601 1 21 0 13.458749 23.158203 3.383265 0 0 0
602 1 3 0 13.757693 24.906063 2.483038 0 0 0
604 1 24 0 15.679873 22.923485 3.962831 0 0 0
605 1 18 0 15.353715 23.961819 4.010666 0 0 0
606 1 19 0 16.337229 24.657318 3.064965 0 0 0
607 1 1 0 15.631547 24.28896 5.011985 0 0 0
608 1 21 0 15.91592 25.62084 2.759236 0 0 0
609 1 3 0 16.499577 23.856426 1.883287 0 0 0
610 1 23 0 16.093824 24.315081 1.107694 0 0 0
611 1 24 0 18.433191 24.873777 3.236367 0 0 0
612 1 18 0 17.588448 24.883991 3.873114 0 0 0
613 1 19 0 17.621994 26.048895 4.85574 0 0 0
614 1 1 0 17.664896 24.004982 4.574341 0 0 0
615 1 21 0 16.879419 25.87648 5.662043 0 0 0
616 1 10 0 18.869869 25.917 5.483695 0 0 0
1670 3 3 0 14.529502 20.575579 6.356269 0 0 0
1671 3 23 0 15.274722 20.280933 5.837672 0 0 0
2379 4 3 0 19.62052 21.204853 0.643936 0 0 0
2497 4 21 0 14.05036 20.689796 0.08874 0 0 0
2499 4 23 0 14.116808 22.332882 1.240085 0 0 0
2510 4 1 0 14.348475 20.504597 2.999235 0 0 0
2512 4 3 0 16.211491 20.328783 1.276574 0 0 0
2513 4 23 0 16.496696 21.105421 1.729414 0 0 0
2731 4 24 0 19.045986 21.809677 3.975454 0 0 0
2732 4 18 0 19.579737 21.479979 4.870425 0 0 0
2733 4 19 0 19.29174 19.982401 5.073979 0 0 0
2734 4 1 0 19.14753 22.0026 5.757756 0 0 0
2735 4 21 0 18.223412 19.813969 5.148069 0 0 0
704 2 18 0 21.191504 25.775373 1.526894 0 0 0
705 2 19 0 22.70797 25.887106 1.457444 0 0 0
706 2 1 0 20.687265 24.96405 0.927433 0 0 0
707 2 12 0 20.916231 25.525362 2.556475 0 0 0
708 2 21 0 23.066122 24.903408 1.358403 0 0 0
2371 4 21 0 21.507233 19.815496 1.498651 0 0 0
2372 4 3 0 23.196825 20.722065 1.126481 0 0 0
2373 4 23 0 24.040529 20.493034 0.708099 0 0 0
2378 4 21 0 21.408615 22.177135 0.327851 0 0 0
2380 4 23 0 19.826447 21.622725 1.475209 0 0 0
2648 4 18 0 25.737877 20.023159 5.150976 0 0 0
2649 4 19 0 25.826952 21.563171 4.952066 0 0 0
2651 4 21 0 24.907284 22.061907 5.294874 0 0 0
2654 4 24 0 25.330023 21.205086 2.977431 0 0 0
2655 4 18 0 26.048132 21.785595 3.477014 0 0 0
2656 4 19 0 26.014601 23.240995 3.104734 0 0 0
2658 4 21 0 25.432314 23.855875 3.801467 0 0 0
2659 4 3 0 25.42725 23.242672 1.853284 0 0 0
2660 4 23 0 24.479874 23.344101 2.058562 0 0 0
2672 4 21 0 25.964226 25.514622 5.840536 0 0 0
2724 4 24 0 22.329048 23.72893 5.459298 0 0 0
2725 4 18 0 21.482395 23.048508 5.823375 0 0 0
2726 4 19 0 21.130686 21.915848 4.850554 0 0 0
2727 4 1 0 20.636747 23.671482 5.813078 0 0 0
2728 4 21 0 21.789986 20.987389 4.931582 0 0 0
2729 4 3 0 21.462217 22.483593 3.562026 0 0 0
2730 4 23 0 21.819191 21.77146 3.074362 0 0 0
2737 4 23 0 19.879 19.899612 3.205358 0 0 0
1478 3 19 0 31.184778 23.376972 0.016991 0 0 0
1480 3 21 0 31.507654 22.315542 0.362588 0 0 0
1481 3 10 0 30.520935 23.992085 1.121126 0 0 0
1560 3 24 0 32.785664 19.970964 0.563019 0 0 0
1959 3 24 0 32.239937 22.462759 5.969599 0 0 0
1960 3 18 0 31.17746 22.194666 5.641107 0 0 0
1961 3 19 0 31.346821 21.059515 4.570066 0 0 0
1962 3 1 0 30.607069 23.016298 5.19124 0 0 0
1963 3 21 0 31.801453 20.197014 5.075645 0 0 0
1964 3 10 0 32.373127 21.450788 3.660002 0 0 0
1966 3 24 0 29.743479 21.821648 3.436958 0 0 0
1967 3 18 0 30.000765 20.77153 3.883631 0 0 0
1968 3 19 0 30.157946 19.831022 2.683012 0 0 0
1969 3 1 0 29.122799 20.397911 4.472987 0 0 0
1970 3 21 0 31.153973 19.808849 2.43809 0 0 0
1971 3 3 0 29.501793 20.455006 1.562684 0 0 0
1972 3 23 0 30.12998 20.441616 0.847011 0 0 0
2652 4 3 0 26.945826 22.059057 5.684891 0 0 0
2653 4 23 0 27.566946 21.371605 5.874663 0 0 0
2657 4 1 0 27.013119 21.334349 3.283424 0 0 0
2661 4 24 0 27.710144 23.559437 1.951633 0 0 0
2662 4 18 0 27.4149 23.816538 3.001459 0 0 0
2663 4 19 0 27.469566 25.309383 3.321893 0 0 0
2664 4 1 0 28.136517 23.33666 3.672165 0 0 0
2665 4 21 0 26.417101 25.622046 3.268255 0 0 0
2666 4 3 0 28.303551 26.07295 2.474862 0 0 0
2668 4 24 0 28.718327 26.27618 4.80424 0 0 0
2669 4 18 0 27.856146 25.636677 4.817307 0 0 0
2670 4 19 0 26.743546 26.282526 5.658955 0 0 0
2671 4 1 0 28.176922 24.761383 5.321958 0 0 0
3054 17 7 0 32.565464 26.059952 5.574917 0 0 0
3057 17 13 0 32.953484 25.627516 4.156878 0 0 0
3058 17 8 0 32.248882 25.158672 6.058967 0 0 0
47 1 1 0 0.645449 28.338226 0.25296 0 0 0
897 2 21 0 0.311265 32.896503 2.553061 0 0 0
901 2 18 0 2.385533 32.76387 2.055337 0 0 0
902 2 19 0 2.800565 31.578342 2.871775 0 0 0
903 2 1 0 2.240658 32.457771 0.958658 0 0 0
904 2 21 0 3.117208 30.766277 2.159575 0 0 0
905 2 3 0 1.697149 31.165802 3.634324 0 0 0
906 2 23 0 1.192792 30.504719 3.246919 0 0 0
907 2 24 0 3.835634 31.190956 4.692435 0 0 0
908 2 18 0 3.936561 31.786476 3.762032 0 0 0
909 2 19 0 5.240392 31.382725 3.102027 0 0 0
910 2 1 0 3.896336 32.915462 4.015565 0 0 0
911 2 21 0 5.260647 30.281054 3.162685 0 0 0
912 2 3 0 5.197 31.718054 1.695884 0 0 0
913 2 23 0 5.089603 30.973444 1.164793 0 0 0
914 2 24 0 5.993524 32.002834 4.913629 0 0 0
915 2 18 0 6.399083 31.975748 3.865413 0 0 0
1111 2 18 0 5.255269 27.134085 6.421299 0 0 0
1112 2 19 0 4.823427 26.503353 5.104929 0 0 0
1113 2 1 0 6.296012 27.531727 6.255968 0 0 0
1117 2 24 0 5.215535 28.227255 3.892368 0 0 0
1118 2 18 0 4.386034 27.480963 3.968296 0 0 0
1119 2 19 0 4.298756 26.832298 2.611948 0 0 0
1120 2 1 0 3.406405 27.899029 4.268152 0 0 0
1124 2 24 0 3.483096 28.753017 1.601942 0 0 0
1125 2 18 0 3.950782 27.757874 1.389105 0 0 0
1126 2 19 0 5.150438 27.978655 0.552097 0 0 0
1127 2 1 0 3.20522 27.300945 0.752838 0 0 0
1128 2 21 0 5.464712 27.05275 0.109997 0 0 0
1129 2 3 0 6.279834 28.453823 1.27424 0 0 0
3053 17 8 0 0.080223 28.557264 6.191632 0 0 0
3059 17 8 0 0.423399 26.374123 6.143998 0 0 0
135 1 24 0 11.694471 32.320354 3.988513 0 0 0
136 1 18 0 12.07963 31.989378 3.013677 0 0 0
137 1 19 0 11.086454 32.369389 1.878026 0 0 0
138 1 1 0 11.957854 30.897482 3.146865 0 0 0
139 1 21 0 10.319265 31.566994 1.922585 0 0 0
140 1 3 0 11.736602 32.195751 0.620541 0 0 0
141 1 23 0 11.7138 31.257145 0.437149 0 0 0
829 2 23 0 10.270799 32.768799 6.210431 0 0 0
830 2 24 0 8.123453 32.594048 6.451129 0 0 0