LAMMPS data file. CGCMM style. atom_style full generated by VMD/TopoTools v1.8 on Wed Apr 26 16:00:56 +0530 2023
 6684 atoms
 6594 bonds
 12319 angles
 19572 dihedrals
 0 impropers
 25 atom types
 25 bond types
 47 angle types
 60 dihedral types
 0 improper types
 0.004165 39.177810  xlo xhi
 -0.002475 39.171170  ylo yhi
 -0.002881 39.170764  zlo zhi

Pair Coeffs # lj/cut

1 0.038 2.44997
2 0.038 2.44997
3 0.039 3.87541
4 0.039 3.87541
5 0.038 2.44997
6 0 1
7 0.038 2.44997
8 0.038 2.44997
9 0 0
10 0.038 2.44997
11 0.1521 3.1507
12 0.228 2.85978
13 0.228 2.85978
14 0.04 4.05343
15 0.148 3.61705
16 0.039 3.87541
17 0.038 2.44997
18 0.228 2.85978
19 0.228 2.85978
20 0.148 3.61705
21 0.148 3.61705
22 0 0
23 0.228 2.85978
24 0 0 #water
25 0 0 #water

Bond Coeffs

1   340.6175     1.1050 # 1H1C-C1
2   340.6175     1.1050 # 1H2C-C1
3   322.7158     1.5260 # C1-C2*
4   340.6175     1.1050 # C1-HT
5   340.6175     1.1050 # C2*-HC2
6   340.6175     1.1050 # C2*-HH
7   384.0000     1.4200 # C2*-O1
8   384.0000     1.4200
9   540.6336     0.9600 # H-O2
10 450 0.9572
11 540.634 0.96
12  392.8        1.6650 # O2-Si1
13  283.0924     1.5200 # c1-c2
14  340.6175     1.1050 # c1-h
15  615.3220     1.2300 # c1-o
16  322.7158     1.5260 # c2-c2
17  340.6175     1.1050 # c2-h
18  283.0924     1.5200 
19  283.0924     1.5200 
20  340.6175     1.1050
21  340.6175     1.1050
22  384.0000     1.4200
23  384.0000     1.4200
24  384.0000     1.4200
25  540.6336     0.9600

Angle Coeffs

1    39.5000   106.4000 # 1H1C-C1-1H2C
2    44.4000   110.0000 # 1H1C-C1-C2*
3    39.5000   106.4000 # 1H1C-C1-HT
4    44.4000   110.0000 # 1H2C-C1-C2*
5    39.5000   106.4000 # 1H2C-C1-HT
6    46.6000   110.5000 # C1-C2*-C1
7    44.4000   110.0000 # C1-C2*-HC2
8    44.4000   110.0000 # C1-C2*-HH
9    70.0000   109.5000 # C1-C2*-O1
10   70.0000   109.5000 # C1-C2*-O1
11   46.6000   110.5000 # C2*-C1-C2*
12   44.4000   110.0000 # C2*-C1-HT
13   58.5000   106.0000 # C2*-O1-HO1
14   60.0000   109.5000 # c-o-c
15   60.0000   109.5000 # c-o-c
16   33.3      113.4    # H-O2-Si1
17   55        104.52   # H-O-H water
18   39.5000   106.4000 # HC2-C2*-HH
19   57.0000   109.5000 # HC2-C2*-O1
20   57.0000   109.5000 # HC2-C2*-O1
21   57.0000   109.5000 # HH-C2*-O1
22   57.0000   109.5000 # HH-C2*-O1
23   42.3      113.1    # O2-Si1-O2
24   31.1      149.8    # Si1-O2-Si1
25   46.6000   110.5000 # c1-c2-c2
26   45.0000   109.5000 # c1-c2-h
27   50.0000   120.0000 # c2-c1-h
28   68.0000   120.0000 # c2-c1-o
29   46.6000   110.5000 # c2-c2-c2
30   44.4000   110.0000 # c2-c2-h
31   46.6000   110.5000 # c2-c2-c1
32   46.6000   110.5000 # c1-c2-c2
33   50.0000   120.0000 # c2-c1-h
34   70.0000   109.5000 # C1-C2*-O1
35   70.0000   109.5000 # C1-C2*-O1
36   44.4000   110.0000 # c2-c1-h
37   70.0000   109.5000 # C1-C2*-O1
38   55.0000   120.0000 # h-c1-o
39   39.5000   106.4000 # h-c2-h
40   44.4000   110.0000 # C1-C2*-HH
41   44.4000   110.0000 # C1-C2*-HH
42   57.0000   109.5000 # HH-C2*-O1
43   57.0000   109.5000 # HH-C2*-O1
44   57.0000   109.5000 # HH-C2*-O1
45   70.0000   109.5000 # O-C2*-O1
46   70.0000   109.5000 # O-C2*-O1
47   58.5000   106.0000 # C2*-O1-HO1

Dihedral Coeffs

1 0.1580 1 3 
2 0.1580 1 3 
3 0.1580 1 3 
4 0.1580 1 3 
5 0.1580 1 3 
6 0.1580 1 3 
7 0.1580 1 3 
8 0.1580 1 3 
9 0.1580 1 3 
10 0.1300 1 3 
11 0.1300 1 3 
12 0.1300 1 3 
13 0.1580 1 3 
14 0.1580 1 3 
15 0.1580 1 3 
16 0.1580 1 3 
17 0.1580 1 3 
18 0.1300 1 3 
19 0.1300 1 3 
20 0.1300 1 3 
21 0.1300 1 3 
22 0.1300 1 3 
23 0.1300 1 3 
24 1 1 3 
25 0.1300 1 3 
26 0.1300 1 3 
27 0.1300 1 3 
28 0.1300 1 3 
29 0.1300 1 3 
30 0.1580 1 3 
31 0.1580 1 3 
32 0.1580 1 3 
33 0.1580 1 3 
34 0.1580 1 3 
35 0.3 1 3 
36 0.1580 1 3 
37 0.1580 1 3 
38 0.1580 1 3 
39 0.1580 1 3 
40 0.1580 1 3 
41 0.1580 1 3 
42 0.1580 1 3 
43 0.1580 1 3 
44 0.1580 1 3 
45 0.1580 1 3 
46 0.1300 1 3 
47 0 1 0 
48 0 1 0 
49 0.1580 1 3 
50 0.1580 1 3 
51 0.1580 1 3 
52 0.1580 1 3 
53 0.1580 1 3 
54 0.1580 1 3 
55 0.1580 1 3 
56 0.1580 1 3 
57 0.1300 1 3 
58 0 1 0 
59 0 1 0 
60 0.1300 1 3 

 Masses

 1 1.007940 # T11
 2 1.007940 # T12
 3 12.010700 # T13
 4 12.010700 # T14
 5 1.007940 # T15
 6 1.008000 # T16
 7 1.007940 # T17
 8 1.007940 # T18
 9 1.007940 # T19
 10 1.007940 # T20
 11 15.999000 # T21
 12 15.999400 # T22
 13 15.999400 # T23
 14 28.085501 # T24
 15 12.010700 # T25
 16 12.010700 # T26
 17 1.007940 # T27
 18 15.999400 # T28
 19 15.999400 # T29
 20 12.010700 # T30
 21 12.010700 # T31
 22 1.007940 # T32
 23 15.999400 # T33
 24 15.999400 # T34
 25 1.007940 # T35

 Atoms # full

1 1 10 0.150340 21.045996 20.850403 23.720865 # T20 
2 1 3 -0.048130 20.893179 20.186106 22.809475 # T13 
3 1 4 -0.055749 20.946341 20.966702 21.478640 # T14 
4 1 1 0.151338 19.978138 19.576660 22.902845 # T11 
5 1 2 0.143725 21.792137 19.573690 22.772902 # T12 
6 1 7 0.163805 20.426390 21.927340 21.569319 # T17 
7 1 12 -0.391781 20.165754 20.148008 20.554539 # T22 
8 1 9 0.139006 20.790854 19.597218 20.030535 # T19 
9 1 10 0.135793 22.808823 20.280102 20.443359 # T20 
10 1 3 -0.038979 22.333132 21.201559 20.978338 # T13 
11 1 4 -0.078318 22.498510 22.327360 19.930309 # T14 
12 1 1 0.132295 23.012960 21.416895 21.820194 # T11 
13 1 7 0.156397 23.407751 22.111443 19.322937 # T17 
14 1 12 -0.404725 21.389885 22.399136 19.043970 # T22 
15 1 9 0.136014 20.701538 22.139658 19.607903 # T19 
16 1 10 0.128948 23.132545 24.456854 19.780294 # T20 
17 1 3 -0.055640 22.905329 23.710274 20.525343 # T13 
18 1 4 -0.076810 21.839882 24.441900 21.326542 # T14 
19 1 1 0.133067 23.767956 23.548378 21.190948 # T11 
20 1 7 0.157608 20.894590 23.998722 20.977106 # T17 
21 1 19 -0.406326 21.839834 25.872616 21.080189 # T29 
22 1 25 0.145046 21.022749 26.037836 20.758640 # T35 
23 1 10 0.131792 22.840185 24.453772 23.249517 # T20 
24 1 3 -0.056549 21.888868 24.162596 22.818844 # T13 
25 1 4 -0.087297 20.700642 24.736542 23.516895 # T14 
26 1 1 0.128816 21.833727 23.081224 22.991022 # T11 
27 1 7 0.154784 20.909019 25.853041 23.571270 # T17 
28 1 12 -0.397795 19.473354 24.466614 22.794737 # T22 
29 1 9 0.154632 19.217222 23.525646 22.960602 # T19 
30 1 10 0.128837 21.300344 24.122118 25.562435 # T20 
31 1 3 -0.056185 20.427212 24.144346 24.926987 # T13 
32 1 4 -0.089387 19.248762 24.865196 25.614037 # T14 
33 1 1 0.131774 20.074823 23.107563 24.786369 # T11 
34 1 7 0.149065 18.379187 24.713556 24.922991 # T17 
35 1 19 -0.410842 19.597891 26.212423 25.770084 # T29 
36 1 25 0.138856 18.801651 26.638809 26.153965 # T35 
37 1 10 0.128925 19.013353 23.214596 26.882717 # T20 
38 1 3 -0.052283 18.847313 24.317263 27.006823 # T13 
39 1 4 -0.079233 19.910734 24.755033 28.075361 # T14 
40 1 1 0.130138 17.802916 24.473330 27.297615 # T11 
41 1 7 0.160729 20.907478 24.888489 27.669933 # T17 
42 1 19 -0.402542 19.591604 26.087242 28.407372 # T29 
43 1 25 0.146291 20.154808 26.569155 27.824945 # T35 
44 1 10 0.134437 21.116558 24.397659 29.812962 # T20 
45 1 3 -0.049812 20.236372 23.919624 29.308552 # T13 
46 1 4 -0.074803 19.128897 23.552349 30.273943 # T14 
47 1 1 0.132143 20.678263 23.010084 28.832010 # T11 
48 1 7 0.161452 18.560919 22.837906 29.574949 # T17 
49 1 19 -0.398088 18.290432 24.651457 30.571236 # T29 
50 1 25 0.141302 17.453060 24.297592 30.869312 # T35 
51 1 10 0.129603 20.267754 22.081985 31.163197 # T20 
52 1 3 -0.057848 19.477772 22.755800 31.525635 # T13 
53 1 4 -0.082738 19.986431 23.782890 32.588730 # T14 
54 1 1 0.128272 18.617582 22.138931 31.911356 # T11 
55 1 7 0.154365 20.328743 24.785454 32.114410 # T17 
56 1 19 -0.407207 18.946547 23.995939 33.525578 # T29 
57 1 25 0.144630 19.419567 24.355051 34.296516 # T35 
58 1 10 0.129087 21.912321 22.839167 32.480827 # T20 
59 1 3 -0.049427 21.169317 23.107319 33.279598 # T13 
60 1 4 -0.082776 21.874495 23.893557 34.384888 # T14 
61 1 1 0.133519 20.963955 22.108904 33.683830 # T11 
62 1 7 0.158262 22.497437 23.071371 34.840378 # T17 
63 1 12 -0.400295 21.016558 24.428284 35.340118 # T22 
64 1 9 0.141824 20.639830 25.148134 34.865585 # T19 
65 1 10 0.129719 22.405104 25.120796 32.645569 # T20 
66 1 3 -0.049256 22.717264 25.005993 33.720135 # T13 
67 1 4 -0.080268 22.572975 26.502964 34.240112 # T14 
68 1 1 0.132489 23.791567 24.741314 33.715763 # T11 
69 1 7 0.158375 23.057510 27.256557 33.585361 # T17 
70 1 12 -0.404614 21.129204 26.816927 34.199364 # T22 
71 1 9 0.147272 21.005470 27.728662 33.919975 # T19 
72 1 10 0.128405 24.211014 26.598677 35.581932 # T20 
73 1 3 -0.052213 23.115089 26.524687 35.689022 # T13 
74 1 4 -0.077272 22.423773 27.566301 36.548443 # T14 
75 1 1 0.131535 22.961695 25.515951 36.159733 # T11 
76 1 7 0.157843 21.375147 27.371109 36.462753 # T17 
77 1 12 -0.411757 22.666111 28.789207 35.973846 # T22 
78 1 9 0.132249 21.938341 29.033627 35.459534 # T19 
79 1 10 0.132493 22.190046 28.303541 38.646923 # T20 
80 1 3 -0.055279 22.781214 27.583813 38.048759 # T13 
81 1 4 -0.091391 22.480352 26.201870 38.539234 # T14 
82 1 1 0.132044 23.790764 27.924994 38.309319 # T11 
83 1 7 0.148614 21.749306 25.611515 37.975208 # T17 
84 1 19 -0.401855 21.800953 26.331991 0.643133 # T29 
85 1 25 0.146592 20.909430 26.647459 0.417486 # T35 
86 1 10 0.126902 24.266548 26.061316 0.291269 # T20 
87 1 3 -0.056483 23.782078 25.415148 38.742310 # T13 
88 1 4 -0.086445 23.647614 23.935175 0.020809 # T14 
89 1 1 0.132129 24.465008 25.462873 37.824112 # T11 
90 1 7 0.149969 22.774481 23.735229 0.628788 # T17 
91 1 12 -0.413669 24.812325 23.647446 0.707783 # T22 
92 1 9 0.134878 24.874630 22.699585 0.785247 # T19 
93 1 10 0.127527 24.235531 23.287539 37.169575 # T20 
94 1 3 -0.061316 23.434481 23.102053 37.938618 # T13 
95 1 4 -0.082262 23.669058 21.663147 38.402847 # T14 
96 1 1 0.132496 22.419262 23.245565 37.484398 # T11 
97 1 7 0.154665 24.706038 21.495619 38.655338 # T17 
98 1 12 -0.397400 22.832376 21.475679 0.389121 # T22 
99 1 9 0.154577 23.268702 20.803070 0.925903 # T19 
100 1 10 0.135766 23.948025 20.871708 36.325600 # T20 
101 1 3 -0.046179 23.378929 20.677582 37.224072 # T13 
102 1 4 -0.082699 23.515036 19.154085 37.581501 # T14 
103 1 1 0.137057 22.319149 20.807301 36.899982 # T11 
104 1 7 0.151673 22.739746 18.870447 38.361069 # T17 
105 1 12 -0.397836 24.783081 18.932341 38.272652 # T22 
106 1 9 0.152167 25.289761 19.707071 38.107086 # T19 
107 1 10 0.131519 23.775213 18.743847 35.381214 # T20 
108 1 3 -0.052087 23.392237 18.235382 36.325329 # T13 
109 1 4 -0.085314 23.953144 16.819256 36.517651 # T14 
110 1 1 0.127249 22.316002 18.138754 36.195068 # T11 
111 1 7 0.154839 25.045696 16.956757 36.610340 # T17 
112 1 12 -0.400370 23.388464 16.212072 37.669483 # T22 
113 1 9 0.150374 22.692169 15.613638 37.379597 # T19 
114 1 10 0.125811 24.242254 15.231971 34.918568 # T20 
115 1 3 -0.059816 23.536938 16.027388 35.249866 # T13 
116 1 4 -0.078725 22.051809 15.448325 35.399704 # T14 
117 1 1 0.131731 23.631222 16.706900 34.380714 # T11 
118 1 7 0.149727 21.246593 16.271257 35.536469 # T17 
119 1 12 -0.395098 21.841507 14.412895 36.428326 # T22 
120 1 9 0.156795 22.715939 13.983147 36.401157 # T19 
121 1 10 0.132289 22.002794 13.943564 33.878162 # T20 
122 1 3 -0.053328 21.667768 14.915578 34.028000 # T13 
123 1 4 -0.081751 20.117832 14.864760 33.895981 # T14 
124 1 1 0.129508 22.094193 15.565959 33.276516 # T11 
125 1 7 0.152365 19.849895 15.898024 33.633255 # T17 
126 1 12 -0.400638 19.562305 14.509981 35.116627 # T22 
127 1 9 0.149378 20.137587 13.884360 35.483696 # T19 
128 1 10 0.136049 19.296291 12.995284 33.574863 # T20 
129 1 3 -0.052444 19.494825 13.805664 32.888477 # T13 
130 1 4 -0.087225 18.064644 14.233778 32.513115 # T14 
131 1 1 0.129669 20.140715 13.636633 31.989296 # T11 
132 1 7 0.146678 17.614115 14.505648 33.420982 # T17 
133 1 19 -0.410275 17.371758 13.181621 31.939589 # T29 
134 1 25 0.139196 17.832823 13.070151 31.108391 # T35 
135 1 10 0.130927 18.171547 15.081143 30.526245 # T20 
136 1 3 -0.048016 17.927694 15.394388 31.540373 # T13 
137 1 4 -0.082928 16.486389 15.897780 31.618330 # T14 
138 1 1 0.128841 18.578655 16.172005 31.665066 # T11 
139 1 7 0.152387 15.978980 15.739874 32.591045 # T17 
140 1 12 -0.396502 15.602197 15.461279 30.605877 # T22 
141 1 9 0.152694 16.139959 15.021332 29.892004 # T19 
142 1 10 0.129184 15.451155 17.764904 31.286734 # T20 
143 1 3 -0.052803 16.417004 17.417000 31.693739 # T13 
144 1 4 -0.076877 16.780729 17.839790 33.119400 # T14 
145 1 1 0.130448 17.148361 17.855331 30.974403 # T11 
146 1 7 0.156629 17.550024 17.282104 33.537437 # T17 
147 1 19 -0.392838 15.624855 17.856882 33.955383 # T29 
148 1 25 0.156919 15.874469 18.306067 34.727638 # T35 
149 1 10 0.129925 16.610485 20.043535 32.889709 # T20 
150 1 3 -0.049849 17.298012 19.258457 33.112762 # T13 
151 1 4 -0.079390 17.933607 19.531569 34.526489 # T14 
152 1 1 0.132142 18.039566 19.412832 32.333969 # T11 
153 1 7 0.155828 18.737366 18.795141 34.612404 # T17 
154 1 19 -0.391799 16.943035 19.422985 35.498920 # T29 
155 1 25 0.155888 17.409733 18.973455 36.281925 # T35 
156 1 10 0.131268 18.204374 21.581236 34.103409 # T20 
157 1 3 -0.053586 18.794609 20.802435 34.589622 # T13 
158 1 4 -0.079805 19.365070 21.162434 36.003735 # T14 
159 1 1 0.131283 19.582405 20.645723 33.907665 # T11 
160 1 7 0.153586 20.136381 21.921007 35.929482 # T17 
161 1 12 -0.400452 19.918709 19.973692 36.577667 # T22 
162 1 9 0.155777 20.527931 19.582518 35.902611 # T19 
163 1 10 0.130553 18.886679 21.492958 37.968224 # T20 
164 1 3 -0.047752 18.467596 21.834923 36.994408 # T13 
165 1 4 -0.075723 18.371733 23.373175 37.010937 # T14 
166 1 1 0.130225 17.512320 21.301931 36.923706 # T11 
167 1 7 0.157266 19.253880 23.851023 36.611206 # T17 
168 1 12 -0.397055 18.191084 23.800850 38.313232 # T22 
169 1 9 0.152178 17.945311 24.681671 38.196140 # T19 
170 1 10 0.131595 16.232721 23.520603 36.460632 # T20 
171 1 3 -0.051187 17.216148 23.845634 36.080887 # T13 
172 1 4 -0.083254 17.399748 25.342802 35.911354 # T14 
173 1 1 0.138593 17.219240 23.336611 35.089710 # T11 
174 1 7 0.155603 18.465065 25.470316 35.681961 # T17 
175 1 12 -0.399244 17.193079 26.126171 37.105335 # T22 
176 1 9 0.139385 17.881342 26.796455 37.132813 # T19 
177 1 10 0.129072 16.743353 25.173677 33.910503 # T20 
178 1 3 -0.053414 16.585726 25.950453 34.751595 # T13 
179 1 4 -0.079833 15.073597 26.087626 35.227245 # T14 
180 1 1 0.127788 16.952974 26.913939 34.366173 # T11 
181 1 7 0.151684 14.945923 27.060049 35.680969 # T17 
182 1 12 -0.401281 14.704874 25.088202 36.172531 # T22 
183 1 9 0.148724 15.349837 25.236338 36.843121 # T19 
184 1 10 0.129805 14.646976 25.241354 33.366680 # T20 
185 1 3 -0.052482 14.162498 26.049511 34.022377 # T13 
186 1 4 -0.090424 12.644148 25.779106 34.205856 # T14 
187 1 1 0.133511 14.250935 27.096418 33.573483 # T11 
188 1 7 0.145440 12.221543 26.543797 34.825508 # T17 
189 1 19 -0.402649 12.384475 24.511547 34.836624 # T29 
190 1 25 0.144393 12.776080 24.515396 35.735207 # T35 
191 1 10 0.138762 12.224205 25.254158 32.138153 # T20 
192 1 3 -0.044455 11.794111 25.840954 32.914303 # T13 
193 1 4 -0.087254 10.292349 25.579992 33.082222 # T14 
194 1 1 0.133397 11.864281 26.863010 32.433895 # T11 
195 1 7 0.152406 10.163442 24.501629 33.337700 # T17 
196 1 19 -0.401243 9.843389 26.340872 34.288494 # T29 
197 1 22 0.151499 10.071362 25.855917 35.101524 # T32 
198 1 10 0.132732 10.080449 25.357521 30.970957 # T20 
199 1 3 -0.050274 9.509017 25.780815 31.800110 # T13 
200 1 4 -0.084119 8.164134 25.037336 31.755018 # T14 
201 1 1 0.131303 9.323932 26.803488 31.427444 # T11 
202 1 7 0.156669 7.353978 25.639030 31.236019 # T17 
203 1 19 -0.400550 7.701743 24.728416 33.097088 # T29 
204 1 25 0.142422 6.904999 25.205433 33.139221 # T35 
205 1 10 0.134028 9.285788 23.229792 31.265551 # T20 
206 1 3 -0.052317 8.361697 23.761278 30.971153 # T13 
207 1 4 -0.077349 7.153211 22.788761 31.139231 # T14 
208 1 1 0.129943 8.549108 23.905539 29.911514 # T11 
209 1 7 0.160136 7.235195 22.284594 32.056458 # T17 
210 1 12 -0.408547 5.985904 23.620127 30.929134 # T22 
211 1 9 0.139207 6.011420 24.318636 31.543659 # T19 
212 1 10 0.132662 8.228811 21.354664 30.189774 # T20 
213 1 3 -0.053118 7.222717 21.745895 30.034294 # T13 
214 1 4 -0.080012 6.109581 20.710960 30.185373 # T14 
215 1 1 0.126850 7.101553 22.248140 29.094110 # T11 
216 1 7 0.155242 5.153688 21.253225 29.976389 # T17 
217 1 19 -0.398793 6.131875 20.008652 31.416872 # T29 
218 1 25 0.149844 5.414351 19.369188 31.380999 # T35 
219 1 10 0.128748 6.488783 20.285191 28.170029 # T20 
220 1 3 -0.055941 6.168636 19.727655 29.025959 # T13 
221 1 4 -0.086253 7.127200 18.484735 29.140913 # T14 
222 1 1 0.127623 5.120401 19.377668 28.795744 # T11 
223 1 7 0.149778 6.554628 17.691484 29.653664 # T17 
224 1 19 -0.401330 8.229605 18.786287 29.911308 # T29 
225 1 25 0.145566 8.288278 18.202833 30.696220 # T35 
226 1 10 0.127815 6.736949 17.383787 27.227951 # T20 
227 1 3 -0.060143 7.580186 17.874617 27.792629 # T13 
228 1 4 -0.084331 8.372512 18.661377 26.713463 # T14 
229 1 1 0.130705 8.361520 17.140030 28.069880 # T11 
230 1 7 0.147971 9.101889 17.906111 26.389757 # T17 
231 1 12 -0.402231 9.109099 19.760010 27.232050 # T22 
232 1 9 0.144688 9.139808 19.610817 28.182377 # T19 
233 1 10 0.132624 6.713077 19.880501 25.864052 # T20 
234 1 3 -0.053168 7.456014 19.134817 25.533705 # T13 
235 1 4 -0.087710 8.196150 19.589157 24.348989 # T14 
236 1 1 0.132754 6.976289 18.190020 25.116714 # T11 
237 1 7 0.149928 8.720931 20.500332 24.648039 # T17 
238 1 19 -0.397968 9.103673 18.561405 23.945757 # T29 
239 1 25 0.140292 9.488590 18.164551 24.754950 # T35 
240 1 10 0.130220 6.579696 20.791451 23.781404 # T20 
241 1 3 -0.066032 7.178924 19.985012 23.349228 # T13 
242 1 4 -0.086980 7.821160 20.514921 22.088001 # T14 
243 1 1 0.131147 6.427020 19.207695 23.074873 # T11 
244 1 7 0.147148 8.599169 19.821381 21.650566 # T17 
245 1 19 -0.400012 8.575801 21.661175 22.480082 # T29 
246 1 25 0.142909 8.733857 22.138567 21.655478 # T35 
247 1 10 0.134858 6.114279 20.046553 20.649664 # T20 
248 1 3 -0.059617 6.839733 20.872557 20.879141 # T13 
249 1 4 -0.083459 6.084868 22.230059 21.025122 # T14 
250 1 1 0.127180 7.378504 21.062536 19.954285 # T11 
251 1 7 0.154783 6.694182 22.914268 20.388180 # T17 
252 1 12 -0.406893 6.240487 22.771025 22.358946 # T22 
253 1 9 0.140519 7.050735 22.266874 22.650448 # T19 
254 1 10 0.133469 4.462446 21.445381 19.711124 # T20 
255 1 3 -0.053574 4.585104 22.192204 20.553129 # T13 
256 1 4 -0.081272 3.556035 21.898077 21.564369 # T14 
257 1 1 0.135703 4.344056 23.193647 20.089252 # T11 
258 1 7 0.160172 3.790966 22.655100 22.303953 # T17 
259 1 12 -0.406509 3.814381 20.642612 22.240463 # T22 
260 1 9 0.138290 4.571169 20.758183 22.731050 # T19 
261 1 10 0.127004 1.961417 23.067167 20.958305 # T20 
262 1 3 -0.060694 2.072158 22.021399 21.161201 # T13 
263 1 4 -0.105192 1.712046 21.293442 19.901207 # T14 
264 1 1 0.129892 1.340437 21.821081 21.940424 # T11 
265 1 7 0.142592 0.587852 21.320892 19.747007 # T17 
266 1 12 -0.414560 2.224097 22.034859 18.829847 # T22 
267 1 9 0.140944 1.513250 22.264307 18.229517 # T19 
268 1 10 0.124272 1.386585 19.317604 20.432871 # T20 
269 1 3 -0.057037 2.063734 19.797003 19.732447 # T13 
270 1 4 -0.074316 1.815400 19.314589 18.308243 # T14 
271 1 1 0.125282 3.061011 19.679903 20.063812 # T11 
272 1 7 0.158182 2.234109 20.018345 17.637173 # T17 
273 1 12 -0.392585 0.411583 19.341011 17.945469 # T22 
274 1 9 0.158399 39.118145 19.491745 18.799849 # T19 
275 1 10 0.133573 2.016802 17.565388 17.115036 # T20 
276 1 3 -0.050068 2.415328 17.916851 18.097174 # T13 
277 1 4 -0.075953 3.933612 17.795641 18.117619 # T14 
278 1 1 0.134227 1.981058 17.230923 18.800426 # T11 
279 1 7 0.158858 4.236070 18.287434 19.056149 # T17 
280 1 12 -0.389936 4.488672 18.624140 17.103474 # T22 
281 1 9 0.153054 4.729833 18.114630 16.318190 # T19 
282 1 10 0.139872 4.436453 16.105150 16.893255 # T20 
283 1 3 -0.039959 4.459401 16.412354 17.962261 # T13 
284 1 4 -0.079884 5.825270 16.337738 18.598417 # T14 
285 1 1 0.139130 3.869831 15.667603 18.446964 # T11 
286 1 7 0.154795 5.888267 16.892303 19.522612 # T17 
287 1 12 -0.401031 6.655535 16.982254 17.736708 # T22 
288 1 9 0.143140 6.271868 17.804195 17.665903 # T19 
289 1 10 0.136485 6.003323 14.292347 17.967743 # T20 
290 1 3 -0.055787 6.359363 14.912094 18.791395 # T13 
291 1 4 -0.082735 7.844379 14.970047 19.131960 # T14 
292 1 1 0.132515 5.807992 14.411009 19.693090 # T11 
293 1 7 0.149009 8.483665 14.895413 18.213453 # T17 
294 1 12 -0.415878 8.248873 16.234720 19.753117 # T22 
295 1 9 0.130051 7.864104 16.938879 19.211151 # T19 
296 1 10 0.132836 9.318748 13.652249 19.962523 # T20 
297 1 3 -0.056804 8.182654 13.802843 20.054482 # T13 
298 1 4 -0.081975 7.771595 13.764139 21.581274 # T14 
299 1 1 0.131470 7.666999 13.013226 19.479378 # T11 
300 1 7 0.152837 7.974360 12.761492 21.847391 # T17 
301 1 12 -0.402397 6.379041 13.946077 21.792885 # T22 
302 1 9 0.146210 6.380723 14.232405 22.735533 # T19 
303 1 10 0.131475 9.018279 15.646271 21.890932 # T20 
304 1 3 -0.055655 8.687691 14.722899 22.412724 # T13 
305 1 4 -0.081214 7.987052 15.128776 23.769535 # T14 
306 1 1 0.132100 9.732591 14.242613 22.473330 # T11 
307 1 7 0.158582 8.637462 15.678344 24.457909 # T17 
308 1 12 -0.407485 6.856385 15.958938 23.561575 # T22 
309 1 9 0.140168 6.983256 16.518087 22.765205 # T19 
310 1 10 0.129514 8.376650 13.367678 25.072107 # T20 
311 1 3 -0.053869 7.585827 13.858386 24.531973 # T13 
312 1 4 -0.085433 6.608743 14.125754 25.678257 # T14 
313 1 1 0.130041 7.317842 13.056748 23.851919 # T11 
314 1 7 0.153123 5.651075 14.524654 25.255848 # T17 
315 1 12 -0.405532 7.162149 15.187056 26.482454 # T22 
316 1 9 0.146645 7.683119 15.694156 25.872635 # T19 
317 1 10 0.127344 7.194941 12.529624 26.989264 # T20 
318 1 3 -0.056820 6.310030 13.037938 26.664513 # T13 
319 1 4 -0.089428 5.450794 13.539454 27.804836 # T14 
320 1 1 0.128110 5.787753 12.283466 26.119961 # T11 
321 1 7 0.145559 6.004051 14.247349 28.374962 # T17 
322 1 12 -0.410496 4.199654 14.080308 27.372314 # T22 
323 1 9 0.134239 4.272317 15.045699 27.513250 # T19 
324 1 10 0.131478 6.149676 11.701582 28.873274 # T20 
325 1 3 -0.049602 5.204702 12.342978 28.670591 # T13 
326 1 4 -0.079396 4.480266 12.646576 30.014214 # T14 
327 1 1 0.128742 4.636921 11.563065 28.136538 # T11 
328 1 7 0.151558 3.719807 11.869390 29.980116 # T17 
329 1 12 -0.398730 3.912924 13.927733 30.070160 # T22 
330 1 9 0.153479 3.459266 13.910867 29.254559 # T19 
331 1 10 0.135310 5.522841 11.280137 31.413286 # T20 
332 1 3 -0.052000 5.340184 12.368224 31.270061 # T13 
333 1 4 -0.076484 6.708995 13.045999 31.466822 # T14 
334 1 1 0.139103 4.655442 12.572493 32.183479 # T11 
335 1 7 0.156560 7.430209 12.772475 30.627190 # T17 
336 1 12 -0.392489 7.285723 12.563200 32.711666 # T22 
337 1 9 0.158198 8.207049 12.651741 32.745205 # T19 
338 1 10 0.128477 5.667597 14.887877 31.976500 # T20 
339 1 3 -0.051230 6.557738 14.564731 31.466597 # T13 
340 1 4 -0.084837 7.802985 15.306137 32.071308 # T14 
341 1 1 0.131310 6.444485 14.932109 30.437090 # T11 
342 1 7 0.153326 7.808990 15.188793 33.117775 # T17 
343 1 19 -0.400567 7.768905 16.617426 31.618584 # T29 
344 1 25 0.154866 6.984190 17.110235 31.934322 # T35 
345 1 10 0.125602 9.230001 13.700106 31.738579 # T20 
346 1 3 -0.060893 9.163298 14.740644 31.554213 # T13 
347 1 4 -0.086781 9.461066 15.027925 30.099121 # T14 
348 1 1 0.125935 9.986725 15.242739 32.175819 # T11 
349 1 7 0.151856 9.371424 16.156126 29.810310 # T17 
350 1 12 -0.409794 8.658607 14.296000 29.182755 # T22 
351 1 9 0.138385 7.808776 14.505162 29.645248 # T19 
352 1 10 0.134603 11.141330 13.579185 30.178211 # T20 
353 1 3 -0.054753 10.912535 14.577582 29.762985 # T13 
354 1 4 -0.083602 11.348177 14.696403 28.300962 # T14 
355 1 1 0.132123 11.572890 15.262577 30.335033 # T11 
356 1 7 0.147503 12.414138 14.738571 28.441975 # T17 
357 1 12 -0.410569 10.927646 15.942742 27.790098 # T22 
358 1 9 0.138566 9.994449 15.887638 27.797581 # T19 
359 1 10 0.131093 9.805870 13.561047 27.065645 # T20 
360 1 3 -0.063823 10.884039 13.579259 27.330482 # T13 
361 1 4 -0.065860 11.706308 13.785182 26.025826 # T14 
362 1 1 0.137322 11.057776 12.579563 27.716568 # T11 
363 1 7 0.156683 12.699177 14.137158 26.290709 # T17 
364 1 19 -0.392726 11.209342 14.784831 25.157650 # T29 
365 1 25 0.151506 10.880135 15.532896 25.686934 # T35 
366 1 10 0.130468 12.550638 11.913631 25.865265 # T20 
367 1 3 -0.050252 11.971370 12.544193 25.173286 # T13 
368 1 4 -0.085739 10.688128 11.763028 24.691589 # T14 
369 1 1 0.134468 12.628074 12.795964 24.351801 # T11 
370 1 7 0.144577 10.044024 12.475621 24.142982 # T17 
371 1 12 -0.409030 10.024681 11.264848 25.851061 # T22 
372 1 9 0.138765 9.090999 11.206334 25.602736 # T19 
373 1 10 0.129487 11.901714 10.154383 23.834175 # T20 
374 1 3 -0.069555 10.934305 10.691277 23.629213 # T13 
375 1 4 -0.091761 9.810746 9.701489 23.526711 # T14 
376 1 1 0.127286 10.949538 11.175961 22.659536 # T11 
377 1 7 0.152764 9.885856 9.091671 22.589293 # T17 
378 1 12 -0.408955 8.549799 10.277311 23.674240 # T22 
379 1 9 0.138325 8.034769 9.496222 23.810535 # T19 
380 1 10 0.125642 9.172273 8.856198 25.391060 # T20 
381 1 3 -0.056046 9.910354 8.563725 24.591888 # T13 
382 1 4 -0.078252 9.443937 7.318739 23.973793 # T14 
383 1 1 0.132532 10.914869 8.481003 25.058033 # T11 
384 1 7 0.153093 9.986033 6.995108 23.023300 # T17 
385 1 12 -0.401717 8.118593 7.544966 23.685057 # T22 
386 1 9 0.147064 7.788387 6.761905 23.214176 # T19 
387 1 10 0.125901 8.904988 6.392126 25.831055 # T20 
388 1 3 -0.065758 9.556481 6.151694 24.938644 # T13 
389 1 4 -0.077072 8.893258 4.850857 24.451914 # T14 
390 1 1 0.126812 10.587736 6.007470 25.381964 # T11 
391 1 7 0.160852 7.880991 5.074665 24.186909 # T17 
392 1 12 -0.404411 9.610829 4.463361 23.297356 # T22 
393 1 9 0.143275 9.518805 3.531163 23.214661 # T19 
394 1 10 0.135574 8.200110 4.001633 26.236799 # T20 
395 1 3 -0.051918 8.929786 3.743194 25.435909 # T13 
396 1 4 -0.071854 8.448220 2.428039 24.720701 # T14 
397 1 1 0.135934 9.912446 3.636086 25.861511 # T11 
398 1 7 0.158590 9.247458 2.016858 24.140255 # T17 
399 1 12 -0.393387 7.317441 2.670974 23.782759 # T22 
400 1 9 0.149697 6.861728 1.823124 23.612104 # T19 
401 1 10 0.138183 7.343060 1.821190 26.592102 # T20 
402 1 3 -0.044960 8.131529 1.482709 25.922789 # T13 
403 1 4 -0.072747 7.923720 0.004119 25.560024 # T14 
404 1 1 0.137352 8.986814 1.518294 26.611464 # T11 
405 1 7 0.154889 8.909986 38.743481 25.276031 # T17 
406 1 12 -0.399764 7.038837 39.118401 24.458563 # T22 
407 1 9 0.158795 7.612249 38.739727 23.744316 # T19 
408 1 10 0.126764 6.934166 39.092068 27.491629 # T20 
409 1 3 -0.045715 7.565261 38.394379 26.841902 # T13 
410 1 4 -0.083534 6.908744 36.992367 26.596352 # T14 
411 1 1 0.131287 8.509909 38.398930 27.430445 # T11 
412 1 7 0.160923 7.521056 36.503906 25.827011 # T17 
413 1 12 -0.388702 5.626633 37.264446 26.071356 # T22 
414 1 9 0.145113 5.675087 38.091167 25.564705 # T19 
415 1 10 0.135819 6.756843 37.036922 28.709137 # T20 
416 1 3 -0.045452 6.917691 36.281902 27.968386 # T13 
417 1 4 -0.075706 5.932490 35.125790 28.196535 # T14 
418 1 1 0.138335 7.943315 35.999493 28.220678 # T11 
419 1 7 0.163317 6.113532 34.807949 29.246218 # T17 
420 1 12 -0.403721 4.612834 35.505959 27.852936 # T22 
421 1 9 0.140100 4.692352 36.345158 27.393805 # T19 
422 1 10 0.134247 7.253417 33.656231 27.696337 # T20 
423 1 3 -0.051988 6.290398 33.993565 27.283251 # T13 
424 1 4 -0.082605 5.183501 32.934864 27.320478 # T14 
425 1 1 0.132318 6.494910 34.241673 26.252069 # T11 
426 1 7 0.152562 4.289558 33.333530 26.706270 # T17 
427 1 12 -0.406289 4.789999 32.884830 28.678391 # T22 
428 1 9 0.145240 4.649773 33.792713 28.975477 # T19 
429 1 10 0.128647 4.788897 30.841877 27.381168 # T20 
430 1 3 -0.065161 5.577908 31.516253 26.902105 # T13 
431 1 4 -0.099055 5.459929 31.050522 25.391415 # T14 
432 1 1 0.128469 6.547549 31.328798 27.433556 # T11 
433 1 7 0.154100 5.468848 29.928919 25.537964 # T17 
434 1 19 -0.411122 6.588746 31.442659 24.662497 # T29 
435 1 25 0.138609 7.297734 30.767761 24.721075 # T35 
436 1 10 0.127526 3.297082 31.354395 25.288397 # T20 
437 1 3 -0.061285 4.168254 31.430527 24.712809 # T13 
438 1 4 -0.088417 4.209601 32.817886 24.061867 # T14 
439 1 1 0.128990 3.984037 30.717104 23.932941 # T11 
440 1 7 0.158622 5.127350 33.339573 24.531002 # T17 
441 1 12 -0.399207 2.932356 33.467503 24.411528 # T22 
442 1 9 0.142498 3.221635 34.265751 24.847628 # T19 
443 1 10 0.136734 3.208214 31.964344 22.272245 # T20 
444 1 3 -0.060305 4.159605 32.592442 22.503599 # T13 
445 1 4 -0.083043 4.052058 33.901215 21.831673 # T14 
446 1 1 0.130238 5.031132 32.025673 22.109165 # T11 
447 1 7 0.158043 3.022101 34.276684 22.148569 # T17 
448 1 19 -0.394598 4.139665 33.665058 20.415911 # T29 
449 1 25 0.136071 3.640746 32.873108 20.263149 # T35 
450 1 10 0.126567 5.792749 34.382053 22.804863 # T20 
451 1 3 -0.061332 5.017356 34.971806 22.238642 # T13 
452 1 4 -0.085645 5.468558 35.888527 21.080936 # T14 
453 1 1 0.129436 4.487234 35.637077 22.990900 # T11 
454 1 7 0.148955 4.578940 36.127972 20.546452 # T17 
455 1 19 -0.405351 6.422125 35.131332 20.236307 # T29 
456 1 25 0.145047 6.045436 34.250214 20.060225 # T35 
457 1 10 0.135309 6.650090 37.052223 22.433281 # T20 
458 1 3 -0.049014 6.025318 37.191219 21.563360 # T13 
459 1 4 -0.076891 6.814459 37.900032 20.435925 # T14 
460 1 1 0.132966 5.142985 37.803627 21.888617 # T11 
461 1 7 0.155527 7.659695 37.239510 20.104084 # T17 
462 1 12 -0.405670 5.962368 38.164879 19.272055 # T22 
463 1 9 0.140975 5.234113 38.717670 19.573439 # T19 
464 1 10 0.131097 8.265731 38.954815 21.741432 # T20 
465 1 3 -0.060095 7.474545 39.160397 20.994123 # T13 
466 1 4 -0.084267 7.827810 1.062151 19.953772 # T14 
467 1 1 0.125095 6.736370 0.432439 21.708145 # T11 
468 1 7 0.155370 7.189814 0.933179 19.085335 # T17 
469 1 12 -0.411996 9.119840 0.667725 19.554815 # T22 
470 1 9 0.129262 9.000236 0.577858 18.570633 # T19 
471 1 10 0.132622 8.501037 2.528320 21.322283 # T20 
472 1 3 -0.049905 7.735935 2.495107 20.558817 # T13 