LAMMPS data file via write_data, version 15 Sep 2022, timestep = 0

6501 atoms
23 atom types
6594 bonds
25 bond types
12319 angles
47 angle types
19572 dihedrals
60 dihedral types

0.004165 39.17781 xlo xhi
-0.002475 39.17117 ylo yhi
-0.002881 39.170764 zlo zhi

Masses

1 1.00794
2 1.00794
3 12.0107
4 12.0107
5 1.00794
6 1.008
7 1.00794
8 1.00794
9 1.00794
10 1.00794
11 15.999
12 15.9994
13 15.9994
14 28.085501
15 12.0107
16 12.0107
17 1.00794
18 15.9994
19 15.9994
20 12.0107
21 12.0107
22 1.00794
23 15.9994
24 15.9994
25 1.00794

Pair Coeffs # lj/cut/coul/cut

1 0.038 2.44997
2 0.038 2.44997
3 0.039 3.87541
4 0.039 3.87541
5 0.038 2.44997
6 0 1
7 0.038 2.44997
8 0.038 2.44997
9 0 0
10 0.038 2.44997
11 0.1521 3.1507
12 0.228 2.85978
13 0.228 2.85978
14 0.04 4.05343
15 0.148 3.61705
16 0.039 3.87541
17 0.038 2.44997
18 0.228 2.85978
19 0.228 2.85978
20 0.148 3.61705
21 0.148 3.61705
22 0 0
23 0.228 2.85978
24 0 0
25 0 0

Bond Coeffs # harmonic

1 340.618 1.105
2 340.618 1.105
3 322.716 1.526
4 340.618 1.105
5 340.618 1.105
6 340.618 1.105
7 384 1.42
8 384 1.42
9 540.634 0.96
10 450 0.9572
11 540.634 0.96
12 392.8 1.665
13 283.092 1.52
14 340.618 1.105
15 615.322 1.23
16 322.716 1.526
17 340.618 1.105
18 283.092 1.52
19 283.092 1.52
20 340.618 1.105
21 340.618 1.105
22 384 1.42
23 384 1.42
24 384 1.42
25 540.634 0.96

Angle Coeffs # harmonic

1 39.5 106.4
2 44.4 110
3 39.5 106.4
4 44.4 110
5 39.5 106.4
6 46.6 110.5
7 44.4 110
8 44.4 110
9 70 109.5
10 70 109.5
11 46.6 110.5
12 44.4 110
13 58.5 106
14 60 109.5
15 60 109.5
16 33.3 113.4
17 55 104.52
18 39.5 106.4
19 57 109.5
20 57 109.5
21 57 109.5
22 57 109.5
23 42.3 113.1
24 31.1 149.8
25 46.6 110.5
26 45 109.5
27 50 120
28 68 120
29 46.6 110.5
30 44.4 110
31 46.6 110.5
32 46.6 110.5
33 50 120
34 70 109.5
35 70 109.5
36 44.4 110
37 70 109.5
38 55 120
39 39.5 106.4
40 44.4 110
41 44.4 110
42 57 109.5
43 57 109.5
44 57 109.5
45 70 109.5
46 70 109.5
47 58.5 106

Dihedral Coeffs # harmonic

1 0.158 1 3
2 0.158 1 3
3 0.158 1 3
4 0.158 1 3
5 0.158 1 3
6 0.158 1 3
7 0.158 1 3
8 0.158 1 3
9 0.158 1 3
10 0.13 1 3
11 0.13 1 3
12 0.13 1 3
13 0.158 1 3
14 0.158 1 3
15 0.158 1 3
16 0.158 1 3
17 0.158 1 3
18 0.13 1 3
19 0.13 1 3
20 0.13 1 3
21 0.13 1 3
22 0.13 1 3
23 0.13 1 3
24 1 1 3
25 0.13 1 3
26 0.13 1 3
27 0.13 1 3
28 0.13 1 3
29 0.13 1 3
30 0.158 1 3
31 0.158 1 3
32 0.158 1 3
33 0.158 1 3
34 0.158 1 3
35 0.3 1 3
36 0.158 1 3
37 0.158 1 3
38 0.158 1 3
39 0.158 1 3
40 0.158 1 3
41 0.158 1 3
42 0.158 1 3
43 0.158 1 3
44 0.158 1 3
45 0.158 1 3
46 0.13 1 3
47 0 1 0
48 0 1 0
49 0.158 1 3
50 0.158 1 3
51 0.158 1 3
52 0.158 1 3
53 0.158 1 3
54 0.158 1 3
55 0.158 1 3
56 0.158 1 3
57 0.13 1 3
58 0 1 0
59 0 1 0
60 0.13 1 3

Atoms # full

870 2 12 -0.396912 0.165846 3.001302 4.442421 0 0 0
871 2 9 0.152259 0.551231 2.269002 4.982267 0 0 0
3549 6 4 -0.07924200000000001 0.879699 6.243802 0.883762 0 0 0
3554 6 10 0.134438 1.472566 4.425666 2.062697 0 0 0
3555 6 3 -0.049814 1.806994 5.088319 1.2336 0 0 0
3556 6 4 -0.074796 2.183637 4.21838 0.097264 0 0 0
3557 6 1 0.132144 2.69056 5.438484 1.636833 0 0 0
3558 6 7 0.161449 3.223709 3.877564 0.488029 0 0 0
3562 6 3 -0.057828 1.294318 2.99114 0.002279 0 0 0
3564 6 1 0.128284 1.133441 2.540928 1.022083 0 0 0
3572 6 7 0.158285 0.585573 0.345495 1.054595 0 0 0
3784 6 9 0.158815 2.041085 0.473673 6.015707 0 0 0
3790 6 12 -0.389139 3.948602 0.333419 5.51055 0 0 0
3792 6 10 0.140578 2.895399 1.286613 3.165354 0 0 0
3793 6 3 -0.038979 3.745584 0.604234 3.140165 0 0 0
3794 6 4 -0.07906100000000001 5.078382 1.325774 2.903366 0 0 0
3795 6 1 0.139617 3.607954 0.103755 2.197264 0 0 0
3796 6 7 0.155189 4.968042 1.754187 1.831305 0 0 0
3797 6 12 -0.400322 6.130913 0.37937 2.838156 0 0 0
3798 6 9 0.14359 6.500803 0.475915 3.759669 0 0 0
3800 6 3 -0.054799 5.555044 2.45844 3.810355 0 0 0
3801 6 4 -0.081896 4.82196 3.813839 3.776144 0 0 0
3802 6 1 0.133065 5.652915 2.091968 4.830179 0 0 0
3803 6 7 0.149505 5.462637 4.610023 4.181946 0 0 0
3804 6 12 -0.415288 4.518699 4.110936 2.408519 0 0 0
3805 6 9 0.130357 5.278625 3.779619 1.918323 0 0 0
3806 6 10 0.133426 3.72372 3.43912 5.686071 0 0 0
3807 6 3 -0.056033 3.561433 3.960212 4.728703 0 0 0
3808 6 4 -0.079442 3.194643 5.422906 4.991541 0 0 0
3809 6 1 0.13332 2.759422 3.293112 4.28076 0 0 0
3810 6 7 0.154585 2.055963 5.534506 5.059824 0 0 0
3811 6 12 -0.404435 3.653513 6.163406 3.875846 0 0 0
3812 6 9 0.144651 3.979367 5.533432 3.247394 0 0 0
3813 6 10 0.131199 4.793296 6.078984 6.175015 0 0 0
3814 6 3 -0.055968 3.752188 5.973408 6.285355 0 0 0
4227 7 9 0.136073 5.256874 5.118094 0.391549 0 0 0
6611 2 5 0.308124 11.206895 0.535418 0.238555 0 0 0
3214 5 12 -0.39946 12.090339 5.194129 5.991135 0 0 0
3215 5 9 0.155522 12.03586 6.118127 6.263061 0 0 0
3219 5 1 0.130651 13.047493 3.24972 4.471057 0 0 0
3319 5 19 -0.397683 9.476832 0.215178 4.1601 0 0 0
3321 5 10 0.122611 10.938854 1.806592 5.704779 0 0 0
3322 5 3 -0.061014 10.045276 1.276152 6.121564 0 0 0
3323 5 4 -0.081959 8.791773 2.16875 6.012887 0 0 0
3325 5 7 0.139124 7.917901 1.539327 6.201652 0 0 0
3326 5 12 -0.400429 8.805866 2.842172 4.707081 0 0 0
3327 5 9 0.143924 9.40231 2.377474 4.151237 0 0 0
3333 5 12 -0.414826 6.62052 4.186224 6.441916 0 0 0
3334 5 9 0.149231 6.89069 3.881478 5.544154 0 0 0
3335 5 10 0.125183 8.798749 5.512278 5.521645 0 0 0
3799 6 10 0.136986 6.557953 2.603019 3.490012 0 0 0
4218 7 7 0.163848 7.075514 3.502331 0.433503 0 0 0
4300 7 4 -0.08647100000000001 12.819529 6.403343 1.4363 0 0 0
4305 7 10 0.127517 12.501109 4.457169 2.509724 0 0 0
4306 7 3 -0.061329 11.996643 5.169958 1.794255 0 0 0
4307 7 4 -0.08227 10.735229 5.563478 2.498974 0 0 0
4308 7 1 0.132493 11.669892 4.544635 0.958601 0 0 0
4309 7 7 0.154655 10.387726 4.558477 2.842405 0 0 0
4310 7 12 -0.397412 10.899851 6.439768 3.605246 0 0 0
4311 7 9 0.154569 11.139163 5.856914 4.300299 0 0 0
4312 7 10 0.13577 9.574002 5.425063 0.697696 0 0 0
4313 7 3 -0.046172 9.685117 6.074118 1.578759 0 0 0
4314 7 4 -0.08268499999999999 8.380796 6.24949 2.262969 0 0 0
4317 7 12 -0.397824 7.761489 4.991438 2.335921 0 0 0
4318 7 9 0.152178 8.543336 4.483124 2.677839 0 0 0
3087 5 7 0.159217 19.437592 0.444253 2.318297 0 0 0
3089 5 9 0.153138 19.580088 0.013673 0.186103 0 0 0
3090 5 10 0.14018 18.476797 1.975809 0.936065 0 0 0
3091 5 3 -0.039421 19.389156 2.436781 1.325111 0 0 0
3092 5 4 -0.079125 19.164209 3.390329 2.52491 0 0 0
3095 5 12 -0.400558 18.880142 2.509537 3.629081 0 0 0
3096 5 9 0.143496 19.030558 3.016843 4.388615 0 0 0
3097 5 10 0.13727 17.275475 3.957083 1.608039 0 0 0
3098 5 3 -0.054778 18.102097 4.429131 2.132362 0 0 0
3099 5 4 -0.083577 17.455853 5.144087 3.357201 0 0 0
3100 5 1 0.133052 18.582951 5.089618 1.398642 0 0 0
3101 5 7 0.152505 16.594917 5.809832 2.988684 0 0 0
3102 5 19 -0.416681 17.064257 4.220061 4.299001 0 0 0
3105 5 3 -0.057305 18.54846 6.143204 3.84622 0 0 0
3107 5 1 0.131141 19.463249 5.632854 4.171588 0 0 0
3108 5 7 0.15072 17.581219 6.139057 5.681653 0 0 0
3210 5 3 -0.045115 14.432826 6.087847 6.078181 0 0 0
3211 5 4 -0.06990399999999999 13.384918 5.237157 5.415892 0 0 0
3212 5 1 0.135384 15.392586 6.090864 5.524522 0 0 0
3213 5 7 0.154554 13.263138 5.694468 4.400028 0 0 0
3216 5 10 0.13074 14.665395 3.828727 4.452051 0 0 0
3217 5 3 -0.048985 13.808745 3.722768 5.139212 0 0 0
3218 5 4 -0.075045 13.986714 2.726583 6.2949 0 0 0
3220 5 7 0.15616 13.112918 2.096087 6.491613 0 0 0
3223 5 10 0.133195 16.068174 2.559935 5.888958 0 0 0
3224 5 3 -0.04368 15.175895 1.873829 5.920909 0 0 0
3226 5 1 0.136574 15.081489 1.512382 4.867659 0 0 0
3227 5 7 0.160098 16.348862 0.171888 6.364154 0 0 0
4298 7 10 0.126891 14.334059 5.122437 0.709119 0 0 0
4299 7 3 -0.05649 13.750709 6.019182 0.345729 0 0 0
5682 5 16 -0.038333 15.196517 0.536418 1.699027 0 0 0
5685 5 21 -0.048988 13.869576 1.154091 2.279762 0 0 0
5686 5 17 0.155259 15.253722 0.928163 0.678895 0 0 0
5687 5 17 0.155305 16.12991 0.907775 2.204474 0 0 0
5691 5 17 0.147097 13.474141 2.006518 1.704518 0 0 0
947 2 12 -0.406181 26.068779 0.88322 5.551868 0 0 0
948 2 9 0.141638 25.773476 0.811659 4.674215 0 0 0
956 2 10 0.132666 23.551685 1.009409 5.485211 0 0 0
957 2 3 -0.055054 23.261209 0.113394 6.043736 0 0 0
961 2 12 -0.404401 21.230848 1.17391 5.879786 0 0 0
962 2 9 0.142379 20.283678 0.952428 5.676778 0 0 0
1049 2 4 -0.088299 22.727697 4.816571 6.255066 0 0 0
1051 2 7 0.150911 22.048634 5.632125 6.148238 0 0 0
1052 2 12 -0.41144 22.667568 3.96971 5.12042 0 0 0
1053 2 9 0.138125 21.965912 3.30673 5.291645 0 0 0
1055 2 3 -0.055824 24.121773 5.349216 6.293676 0 0 0
1057 2 1 0.131103 24.337118 5.829156 5.330237 0 0 0
1058 2 7 0.146659 24.981373 3.435057 5.859678 0 0 0
3010 5 7 0.156665 20.871063 5.977582 2.181106 0 0 0
3013 5 10 0.134089 23.278564 6.076733 1.384624 0 0 0
3016 5 1 0.13001 23.018032 5.821264 3.123839 0 0 0
3023 5 1 0.126943 25.605135 6.434417 3.089105 0 0 0
3071 5 4 -0.105167 25.00631 2.539284 2.015849 0 0 0
3073 5 7 0.142572 24.782969 3.568279 2.26959 0 0 0
3074 5 12 -0.414584 25.066841 2.513974 0.572096 0 0 0
3075 5 9 0.140932 25.668085 3.26329 0.2839 0 0 0
3076 5 10 0.124338 23.621304 1.952628 3.664282 0 0 0
3077 5 3 -0.056954 23.822342 1.764806 2.592876 0 0 0
3078 5 4 -0.074089 22.587423 1.998785 1.73081 0 0 0
3079 5 1 0.125291 24.141582 0.62225 2.622072 0 0 0
3080 5 7 0.158321 22.710951 1.508132 0.704589 0 0 0
3081 5 12 -0.392571 22.426071 3.332638 1.45554 0 0 0
3082 5 9 0.158349 21.994249 3.359564 0.618738 0 0 0
3083 5 10 0.13369 21.272718 2.05997 3.312567 0 0 0
3084 5 3 -0.049815 21.416933 1.391563 2.466836 0 0 0
3085 5 4 -0.0755 20.109043 1.098184 1.712523 0 0 0
3086 5 1 0.134499 21.834063 0.423407 2.785582 0 0 0
3088 5 12 -0.389754 20.423334 0.335744 0.467565 0 0 0
3093 5 1 0.139516 19.803776 2.935242 0.436875 0 0 0
3094 5 7 0.153988 20.120354 3.82727 2.770088 0 0 0
739 2 10 0.132267 31.190693 0.379146 0.970332 0 0 0
932 2 7 0.146495 30.946066 1.610869 5.561003 0 0 0
937 2 4 -0.09342300000000001 28.615852 0.71716 6.41173 0 0 0
939 2 7 0.146946 28.04129 1.67352 6.510451 0 0 0
940 2 12 -0.403633 28.843901 0.435698 5.09199 0 0 0
941 2 9 0.137303 27.973484 0.636838 4.722323 0 0 0
1061 2 10 0.136945 26.888704 4.846 5.270808 0 0 0
1062 2 3 -0.055725 26.632441 4.691531 6.340113 0 0 0
1064 2 1 0.140696 27.323608 3.857792 6.513739 0 0 0
1068 2 10 0.133028 28.98225 5.778637 6.354637 0 0 0
3043 5 4 -0.089628 32.06744 6.430942 1.45483 0 0 0
3045 5 7 0.148657 31.126707 6.017519 1.116256 0 0 0
3048 5 10 0.130268 31.936676 6.020798 3.637076 0 0 0
3049 5 3 -0.06619999999999999 32.494034 5.669456 2.705821 0 0 0
3050 5 4 -0.087032 32.378922 4.099813 2.703794 0 0 0
3053 5 12 -0.402648 32.342186 3.592376 1.385987 0 0 0
3054 5 9 0.144022 32.153675 4.400878 0.896119 0 0 0
3055 5 10 0.131539 31.148216 3.909786 4.55079 0 0 0
3056 5 3 -0.059439 31.156126 3.552747 3.467046 0 0 0
3057 5 4 -0.083345 29.771839 3.974286 2.84573 0 0 0
3058 5 1 0.127314 31.256845 2.498395 3.553756 0 0 0
3059 5 7 0.154923 30.033455 4.312132 1.849695 0 0 0
3060 5 12 -0.406729 29.14591 5.002123 3.608319 0 0 0
3061 5 9 0.140785 28.309061 5.089468 3.154875 0 0 0
3062 5 10 0.133614 28.620428 2.371011 3.82415 0 0 0
3063 5 3 -0.053414 28.835531 2.789113 2.792718 0 0 0
3064 5 4 -0.08115700000000001 27.568495 2.836605 1.999121 0 0 0
3065 5 1 0.135896 29.43405 2.01216 2.281844 0 0 0
3066 5 7 0.160225 27.842093 2.330252 1.035019 0 0 0
3067 5 12 -0.406466 27.087303 4.112486 1.632743 0 0 0
3068 5 9 0.13829 27.726234 4.313795 0.982418 0 0 0
3069 5 10 0.127053 26.391596 2.705896 3.710495 0 0 0
3070 5 3 -0.06064 26.357964 2.172158 2.709921 0 0 0
3072 5 1 0.129942 26.491783 1.044807 2.756853 0 0 0
852 2 3 -0.049936 35.680866 4.120929 0.416879 0 0 0
853 2 4 -0.07965800000000001 36.434471 3.552701 1.661238 0 0 0
854 2 1 0.132095 34.96328 4.943778 0.815461 0 0 0
855 2 7 0.155017 35.865009 4.036414 2.47499 0 0 0
856 2 12 -0.39202 37.746563 3.990734 1.915176 0 0 0
857 2 9 0.155704 37.88311 4.921073 1.845941 0 0 0
858 2 10 0.131076 36.828087 1.479048 1.019711 0 0 0
859 2 3 -0.053843 36.10606 2.040095 1.736059 0 0 0
860 2 4 -0.078016 36.173073 1.507768 3.145797 0 0 0
861 2 1 0.13111 35.083424 1.704192 1.445005 0 0 0
862 2 7 0.152941 36.131035 0.415104 2.940874 0 0 0
863 2 12 -0.400458 35.064186 1.91979 3.952852 0 0 0
864 2 9 0.155827 34.356487 1.275694 3.859791 0 0 0
865 2 10 0.130579 38.375557 1.188452 3.412138 0 0 0
866 2 3 -0.047728 37.500816 1.522254 3.948546 0 0 0
867 2 4 -0.075697 37.927475 2.879073 4.58106 0 0 0
868 2 1 0.130245 37.36285 0.894297 4.822427 0 0 0
869 2 7 0.156762 37.335651 3.725093 4.145838 0 0 0
873 2 3 -0.051123 37.598705 2.745459 6.053758 0 0 0
875 2 1 0.138586 36.471653 2.674608 6.073539 0 0 0
879 2 10 0.129009 38.122543 5.559237 5.040061 0 0 0
880 2 3 -0.053492 37.666252 5.455165 6.014559 0 0 0
881 2 4 -0.079897 36.152618 5.768513 6.130025 0 0 0
884 2 12 -0.402183 35.352314 4.805952 5.4657 0 0 0
885 2 9 0.147901 35.59737 3.948752 5.818564 0 0 0
3046 5 12 -0.400414 32.998856 6.267151 0.408529 0 0 0
3051 5 1 0.131191 33.488388 5.949582 2.942023 0 0 0
3052 5 7 0.147213 33.295193 3.807087 3.163524 0 0 0
3547 6 10 0.128921 38.952076 6.343307 2.739855 0 0 0
3551 6 7 0.160725 39.151215 5.896673 0.338079 0 0 0
3347 5 12 -0.407465 5.953496 9.122725 6.023039 0 0 0
3353 5 7 0.156239 5.777077 11.308856 6.156812 0 0 0
3533 6 10 0.13179 1.032226 9.639754 6.061145 0 0 0
3536 6 1 0.128814 0.159429 10.999021 5.365457 0 0 0
3540 6 10 0.128836 1.353223 9.063101 3.580542 0 0 0
3541 6 3 -0.056187 0.296293 9.254733 3.32823 0 0 0
3542 6 4 -0.089393 0.055142 8.44453 2.009302 0 0 0
3543 6 1 0.131774 0.317504 10.385027 3.034719 0 0 0
3544 6 7 0.149063 0.602907 8.881275 1.213837 0 0 0
3548 6 3 -0.052288 0.495967 6.982574 2.146063 0 0 0
3550 6 1 0.130136 1.260676 6.881799 2.966427 0 0 0
3552 6 12 -0.402546 1.620657 7.185667 0.062371 0 0 0
3817 6 7 0.158482 3.340156 8.094702 5.922814 0 0 0
4321 7 4 -0.085316 6.43677 7.708028 2.402392 0 0 0
4323 7 7 0.154842 6.163471 6.847569 3.048925 0 0 0
4325 7 9 0.150383 6.2799 8.792398 3.974875 0 0 0
4326 7 10 0.125817 4.366499 8.213588 2.498106 0 0 0
4327 7 3 -0.059822 5.162159 8.111429 1.736759 0 0 0
4328 7 4 -0.078732 5.37065 9.230207 0.715965 0 0 0
4329 7 1 0.131725 4.797938 7.131543 1.206197 0 0 0
4331 7 12 -0.395097 6.052356 10.342681 1.271034 0 0 0
4333 7 10 0.132283 3.208055 9.612295 0.832898 0 0 0
4334 7 3 -0.053362 4.020088 9.772818 0.134389 0 0 0
4337 7 7 0.152335 4.149658 11.756742 0.659272 0 0 0
3181 5 10 0.131521 9.582885 10.382094 0.038452 0 0 0
3182 5 3 -0.062693 9.483426 11.316515 0.576663 0 0 0
3183 5 4 -0.090754 10.440654 11.272973 1.73279 0 0 0
3184 5 1 0.127732 8.475968 11.287637 1.043546 0 0 0
3185 5 7 0.153627 9.988005 12.062918 2.391726 0 0 0
3186 5 12 -0.407847 11.749075 11.689273 1.433181 0 0 0
3187 5 9 0.138212 11.61972 12.466076 0.91888 0 0 0
3188 5 10 0.123069 11.152481 9.27769 1.848761 0 0 0
3189 5 3 -0.058489 10.544811 9.924877 2.417943 0 0 0
3190 5 4 -0.07965999999999999 11.189887 10.027044 3.815268 0 0 0
3191 5 1 0.130644 9.543135 9.518721 2.546084 0 0 0
3192 5 7 0.150933 11.094407 9.069545 4.267432 0 0 0
3193 5 12 -0.405539 10.498421 10.982825 4.631681 0 0 0
3194 5 9 0.149844 11.069526 10.980939 5.358845 0 0 0
3195 5 10 0.129791 12.866582 11.424631 3.942924 0 0 0
3196 5 3 -0.061633 12.692593 10.321218 3.861817 0 0 0
3200 5 12 -0.400879 12.468794 9.80375 6.284953 0 0 0
3201 5 9 0.143252 12.233302 10.728477 6.414934 0 0 0
3205 5 1 0.136476 12.758559 7.849161 4.663979 0 0 0
3339 5 7 0.144391 6.773831 6.691044 6.109758 0 0 0
3342 5 10 0.12519 8.417707 8.186288 5.20642 0 0 0
3343 5 3 -0.053866 8.253095 8.124515 6.321957 0 0 0
3349 5 10 0.12263 8.161397 10.480404 5.181997 0 0 0
3350 5 3 -0.058067 7.845285 10.550639 6.238394 0 0 0
3351 5 4 -0.08387 6.825032 11.656695 6.410797 0 0 0
3357 5 3 -0.059251 7.06624 12.839413 5.469576 0 0 0
3359 5 1 0.127659 7.22112 12.514568 4.433297 0 0 0
3360 5 7 0.153174 9.11431 13.004166 5.995608 0 0 0
4302 7 7 0.149957 12.167495 7.111593 0.993186 0 0 0
4315 7 1 0.137063 10.062778 7.060692 1.302453 0 0 0
4316 7 7 0.151679 8.505612 6.594443 3.317722 0 0 0
4319 7 10 0.13153 7.009323 6.720492 0.660141 0 0 0
4320 7 3 -0.052069 7.496595 7.225883 1.464151 0 0 0
4322 7 1 0.12726 7.95682 8.039504 0.959489 0 0 0
4324 7 12 -0.400366 6.890326 8.732736 3.26796 0 0 0
4332 7 9 0.156801 6.61656 10.03106 1.912439 0 0 0
3004 5 12 -0.401483 18.988287 8.375894 1.098034 0 0 0
3005 5 9 0.151356 18.410233 8.398355 0.269292 0 0 0
3104 5 10 0.133514 18.711634 6.874206 3.023577 0 0 0
3106 5 4 -0.085507 18.000237 6.890083 5.049373 0 0 0
3109 5 12 -0.402649 17.034519 7.921161 4.644253 0 0 0
3110 5 9 0.144748 17.065172 8.560745 5.429266 0 0 0
3112 5 3 -0.053846 19.132341 7.602499 5.83306 0 0 0
3113 5 4 -0.08269799999999999 19.186195 9.076989 5.400388 0 0 0
3115 5 7 0.1602 19.138422 9.215086 4.354357 0 0 0
3116 5 12 -0.412253 18.063225 9.835001 6.051068 0 0 0
3117 5 9 0.136561 17.596285 10.150161 5.281493 0 0 0
3197 5 4 -0.071905 13.309042 9.777132 5.09949 0 0 0
3198 5 1 0.131297 13.322248 10.134583 2.963812 0 0 0
3199 5 7 0.162987 14.197474 10.314951 5.298958 0 0 0
3202 5 10 0.136049 14.527269 8.243456 4.188016 0 0 0
3203 5 3 -0.048668 13.70599 8.324207 4.924024 0 0 0
3204 5 4 -0.06873600000000001 14.13219 7.54901 6.241383 0 0 0
3208 5 9 0.151494 15.697957 8.57057 6.05075 0 0 0
4296 7 12 -0.40187 15.684676 7.449271 0.757592 0 0 0
4297 7 9 0.14659 16.043312 8.273474 0.356367 0 0 0
4303 7 12 -0.413677 13.566109 6.948027 2.458767 0 0 0
4304 7 9 0.134874 14.203723 7.449056 1.923488 0 0 0
5768 11 16 -0.034318 15.261241 10.920277 0.908652 0 0 0
5769 11 16 -0.043694 16.585735 10.582646 1.619574 0 0 0
5770 11 17 0.158494 14.719369 10.004339 0.717496 0 0 0
5771 11 17 0.157472 14.537889 11.526603 1.551291 0 0 0
5772 11 16 -0.034156 17.237806 11.783025 2.342851 0 0 0
5773 11 17 0.178778 17.266731 10.01253 0.982399 0 0 0
5774 11 17 0.178228 16.306524 9.846228 2.40596 0 0 0
5775 11 21 -0.040476 16.300724 12.539673 3.308681 0 0 0
5776 11 17 0.15651 17.650185 12.587885 1.654962 0 0 0
5777 11 17 0.156801 18.01264 11.297658 3.007167 0 0 0
2276 4 10 0.131529 25.270679 12.212988 5.03258 0 0 0
2277 4 3 -0.051223 25.875195 12.511505 5.871726 0 0 0
2283 4 10 0.128968 25.843439 9.729276 6.427299 0 0 0
2286 4 1 0.127703 24.39566 10.254607 5.889425 0 0 0
3001 5 4 -0.087339 20.287741 8.780565 0.776776 0 0 0
3003 5 7 0.15234 20.71183 9.507905 1.465889 0 0 0
3006 5 10 0.132652 22.097406 7.94154 0.367929 0 0 0
3007 5 3 -0.050425 21.208069 7.554399 0.833907 0 0 0
3008 5 4 -0.084131 21.464705 6.902832 2.222714 0 0 0
3009 5 1 0.131172 20.807972 6.792922 0.101635 0 0 0
3011 5 12 -0.400609 21.101473 7.759434 3.298025 0 0 0
3012 5 9 0.142406 21.380087 7.353978 4.160866 0 0 0
3014 5 3 -0.052226 22.921421 6.536696 2.313693 0 0 0
3015 5 4 -0.07724 23.810955 7.748423 2.734606 0 0 0
3017 5 7 0.160198 23.551704 8.649482 2.082357 0 0 0
3018 5 12 -0.408459 23.566572 8.118369 4.124852 0 0 0
3019 5 9 0.139262 22.675852 8.528037 4.292332 0 0 0
3020 5 10 0.132752 25.507162 6.940611 1.509047 0 0 0
3021 5 3 -0.052947 25.285904 7.316853 2.597788 0 0 0
3024 5 7 0.155355 25.993864 8.685468 4.051983 0 0 0
3025 5 12 -0.39867 25.791893 9.614902 2.171523 0 0 0
3026 5 9 0.149929 24.97773 9.996504 2.537117 0 0 0
3111 5 10 0.133237 20.039305 7.073469 5.611512 0 0 0
3118 5 10 0.128667 21.339432 8.894211 5.518517 0 0 0
3119 5 3 -0.059782 20.534086 9.537045 5.974202 0 0 0
3120 5 4 -0.091421 20.853178 10.970096 5.575209 0 0 0
3122 5 7 0.151162 21.903887 11.259215 5.97648 0 0 0
3123 5 12 -0.410284 19.900965 11.930938 6.062733 0 0 0
3124 5 9 0.143328 20.378645 12.785467 5.955522 0 0 0
3125 5 10 0.123679 20.346918 10.677238 3.356903 0 0 0
3126 5 3 -0.060507 21.122246 11.151547 4.055393 0 0 0
3127 5 4 -0.093377 21.128782 12.643279 3.792853 0 0 0
3128 5 1 0.125838 22.110546 10.707266 3.843782 0 0 0
3132 5 10 0.129375 21.136713 12.084969 1.651497 0 0 0
3133 5 3 -0.054776 21.456711 12.931932 2.274783 0 0 0
3135 5 1 0.125002 22.518581 13.017858 2.108275 0 0 0
1066 2 12 -0.389291 26.491419 7.109847 6.485636 0 0 0
2246 4 12 -0.396564 32.264221 10.870805 0.238751 0 0 0
2253 4 12 -0.392774 31.366961 12.705659 3.008139 0 0 0
2254 4 9 0.156971 30.498404 12.868506 3.34265 0 0 0
2255 4 10 0.129957 30.278305 12.147227 0.452949 0 0 0
2262 4 10 0.131266 29.115377 11.717908 2.61403 0 0 0
2263 4 3 -0.053582 28.378567 12.335927 2.118922 0 0 0
2264 4 4 -0.07788100000000001 27.187445 12.61058 2.989375 0 0 0
2265 4 1 0.131288 28.055105 11.609838 1.280859 0 0 0
2266 4 7 0.153007 26.655798 11.638885 3.155697 0 0 0
2271 4 4 -0.075761 27.427166 12.436367 5.592403 0 0 0
2273 4 7 0.156719 28.072514 12.636321 6.503157 0 0 0
2274 4 12 -0.396984 27.787521 11.060205 5.270911 0 0 0
2275 4 9 0.152206 28.611555 11.06296 4.689878 0 0 0
3022 5 4 -0.07981000000000001 26.196995 8.486831 2.992149 0 0 0
3027 5 10 0.128918 28.116121 7.984587 3.788902 0 0 0
3028 5 3 -0.055652 27.700989 8.49476 2.921438 0 0 0
3029 5 4 -0.085926 28.275681 8.15145 1.565571 0 0 0
3030 5 1 0.127791 28.058317 9.507644 3.186453 0 0 0
3031 5 7 0.150009 27.71059 8.673148 0.819019 0 0 0
3032 5 12 -0.401033 28.225031 6.776391 1.24987 0 0 0
3033 5 9 0.145789 28.038469 6.699599 0.302897 0 0 0
3034 5 10 0.128112 29.704575 9.659461 0.93627 0 0 0
3035 5 3 -0.059896 29.731165 8.554926 1.211437 0 0 0
3036 5 4 -0.084259 30.636772 8.305042 2.351565 0 0 0
3037 5 1 0.131044 30.113972 8.071754 0.320511 0 0 0
3038 5 7 0.148096 30.176231 7.503974 2.967819 0 0 0
3039 5 12 -0.402106 30.774347 9.433057 3.192813 0 0 0
3040 5 9 0.144887 30.986181 10.12712 2.555666 0 0 0
3042 5 3 -0.054826 31.955393 7.877619 1.799765 0 0 0
3044 5 1 0.130515 32.193508 8.400074 0.887535 0 0 0
886 2 10 0.131035 36.024532 7.114414 4.465677 0 0 0
887 2 3 -0.052687 35.73386 7.106176 5.544649 0 0 0
888 2 4 -0.090722 34.224991 7.396072 5.840914 0 0 0
889 2 1 0.133404 36.436836 7.865038 5.986913 0 0 0
890 2 7 0.145273 33.646416 6.593902 5.340987 0 0 0
891 2 12 -0.400935 34.020321 8.648753 5.163402 0 0 0
892 2 9 0.145662 34.167442 9.344367 5.793422 0 0 0
2241 4 10 0.130885 35.302654 11.920254 1.063038 0 0 0
2242 4 3 -0.048075 34.607742 11.139695 0.701656 0 0 0
2243 4 4 -0.082928 33.187721 11.458096 1.122915 0 0 0
2244 4 1 0.128807 34.910965 10.231688 1.201602 0 0 0
2245 4 7 0.152327 33.11972 11.010779 2.077127 0 0 0
2249 4 3 -0.05275 32.907242 12.925797 1.178234 0 0 0
3041 5 10 0.131489 32.715321 8.226495 2.540648 0 0 0
3534 6 3 -0.056548 39.12344 9.986585 5.746088 0 0 0
3535 6 4 -0.0873 38.533207 9.197742 4.556758 0 0 0
3537 6 7 0.154785 38.475216 8.169532 4.893278 0 0 0
3538 6 12 -0.397792 37.251907 9.771865 4.193518 0 0 0
3539 6 9 0.15463 36.987591 9.648627 3.32893 0 0 0
3545 6 12 -0.410838 37.80658 8.453665 1.720415 0 0 0
3546 6 9 0.138857 37.558498 7.757491 1.148964 0 0 0
4809 7 10 0.129322 38.511646 12.6096 2.983669 0 0 0
4813 7 7 0.155561 37.551914 12.441858 4.957311 0 0 0
4821 7 12 -0.410472 35.542057 12.401763 6.154459 0 0 0
3356 5 10 0.126254 6.24412 13.530524 5.418469 0 0 0
4359 7 12 -0.392784 6.432633 14.287472 0.205493 0 0 0
4364 7 1 0.13213 5.558248 16.750937 1.204199 0 0 0
4718 7 10 0.124526 5.615015 19.552387 6.300307 0 0 0
4723 7 12 -0.393201 6.085961 16.995142 5.470491 0 0 0
4729 7 7 0.141787 3.553962 17.395256 6.237096 0 0 0
4783 7 4 -0.082829 0.511826 18.943222 4.335977 0 0 0
4786 7 12 -0.398637 1.0094 18.009968 5.273442 0 0 0
4787 7 9 0.145961 0.275933 18.097483 5.920059 0 0 0
4788 7 10 0.133274 2.254423 19.417017 2.97092 0 0 0
4789 7 3 -0.050192 1.267989 18.987185 2.942163 0 0 0
4790 7 4 -0.074613 1.432116 17.57852 2.319455 0 0 0
4792 7 7 0.151641 1.703855 17.827396 1.373229 0 0 0
4793 7 12 -0.396135 0.127646 17.014261 2.299151 0 0 0
4794 7 9 0.150607 0.023564 16.552496 3.148842 0 0 0
4795 7 10 0.127312 2.080573 16.457603 4.145932 0 0 0
4796 7 3 -0.056797 2.32886 16.58354 3.050009 0 0 0
4797 7 4 -0.080678 2.570619 15.207444 2.412376 0 0 0
4798 7 1 0.128129 3.334646 17.104174 3.096987 0 0 0
4799 7 7 0.133535 3.386388 14.668729 2.92523 0 0 0
4800 7 12 -0.405295 3.024427 15.476363 1.126436 0 0 0
4801 7 9 0.142423 3.68694 14.826851 0.959853 0 0 0
4802 7 10 0.128738 1.610029 13.312704 1.963752 0 0 0
4803 7 3 -0.064556 1.308318 14.355204 2.309891 0 0 0
4804 7 4 -0.084022 0.527685 14.207786 3.665739 0 0 0
4805 7 1 0.123376 0.643246 14.698821 1.470689 0 0 0
4806 7 7 0.157587 0.24811 15.196909 4.076342 0 0 0
4807 7 12 -0.403686 1.246031 13.336875 4.535529 0 0 0
4808 7 9 0.133574 1.722806 13.920981 5.051325 0 0 0
3179 5 12 -0.404956 9.283266 13.773647 0.570312 0 0 0
3180 5 9 0.141436 10.172212 14.07646 0.822699 0 0 0
3358 5 4 -0.083624 8.235116 13.661253 5.912503 0 0 0
3363 5 10 0.129455 7.663412 15.172925 4.480116 0 0 0
3364 5 3 -0.057834 8.573914 14.71993 4.858618 0 0 0
3365 5 4 -0.076734 9.58534 15.758002 5.306859 0 0 0
3366 5 1 0.128796 8.975989 14.175713 3.979937 0 0 0
3367 5 7 0.154718 9.336932 15.927743 6.347268 0 0 0
3368 5 12 -0.397978 9.433122 16.99404 4.668611 0 0 0
3369 5 9 0.157473 8.57355 17.437519 4.891326 0 0 0
3370 5 10 0.137583 11.228806 15.441872 3.946379 0 0 0
3371 5 3 -0.060814 11.002429 15.378632 4.999312 0 0 0
3372 5 4 -0.083093 12.095915 16.114967 5.759304 0 0 0
3373 5 1 0.127862 11.204867 14.34239 5.318347 0 0 0
3374 5 7 0.156814 13.016242 15.653248 5.318871 0 0 0
3377 5 10 0.130745 11.187225 18.162113 5.818116 0 0 0
3378 5 3 -0.055253 12.115538 17.564623 5.550113 0 0 0
3380 5 1 0.130354 12.296196 17.768564 4.441385 0 0 0
4360 7 9 0.15697 7.216329 14.043771 0.73569 0 0 0
4361 7 10 0.129951 7.047102 16.043592 1.748126 0 0 0
4362 7 3 -0.049759 6.616691 16.591133 0.926501 0 0 0
4363 7 4 -0.07935 7.336914 17.945982 0.94957 0 0 0
4365 7 7 0.155213 7.127294 18.587557 1.798513 0 0 0
4368 7 10 0.131265 9.172917 16.909525 0.406782 0 0 0
4369 7 3 -0.053584 8.826544 17.669144 1.116826 0 0 0
4370 7 4 -0.07788200000000001 9.704161 18.910364 0.902208 0 0 0
4371 7 1 0.131288 9.003728 17.292154 2.15573 0 0 0
4375 7 10 0.13059 10.910265 18.480225 2.542516 0 0 0
4376 7 3 -0.047699 11.094538 18.630995 1.430416 0 0 0
4377 7 4 -0.075762 11.821934 17.422808 0.702179 0 0 0
4378 7 1 0.130268 11.631469 19.53367 1.384315 0 0 0
4380 7 12 -0.396976 11.451857 16.231331 1.325877 0 0 0
4381 7 9 0.15221 12.035618 15.546186 0.981764 0 0 0
4713 7 4 -0.096127 7.692076 19.395144 5.696121 0 0 0
4715 7 7 0.147803 8.668292 18.8752 5.959211 0 0 0
4716 7 12 -0.411667 7.416806 19.018677 4.309368 0 0 0
4717 7 9 0.137255 6.561232 19.408751 4.070756 0 0 0
4724 7 9 0.153026 6.96905 16.715147 5.133346 0 0 0
2346 4 10 0.130246 17.492903 15.274093 6.243176 0 0 0
2353 4 10 0.131542 15.405829 13.528601 6.039823 0 0 0
3137 5 12 -0.402771 19.415747 14.290367 2.114878 0 0 0
3138 5 9 0.150811 19.198103 15.210835 2.007947 0 0 0
3379 5 4 -0.080972 13.325163 18.182314 6.189968 0 0 0
3382 5 12 -0.397823 14.541251 17.496695 5.719647 0 0 0
3383 5 9 0.149062 15.252452 17.744804 6.304006 0 0 0
4382 7 10 0.131528 13.689506 18.528706 0.391101 0 0 0
4383 7 3 -0.051222 13.372842 17.509668 0.641966 0 0 0
4384 7 4 -0.083403 14.012763 17.094488 1.940048 0 0 0
4386 7 7 0.15358 13.492223 16.279495 2.423537 0 0 0
4387 7 12 -0.399313 14.028154 18.190561 2.837763 0 0 0
4388 7 9 0.139343 14.224531 17.838556 3.763451 0 0 0
4389 7 10 0.128968 15.818729 17.441599 0.837755 0 0 0
4390 7 3 -0.05354 15.36183 16.64492 1.520965 0 0 0
4391 7 4 -0.079898 16.430117 16.3319 2.578876 0 0 0
4392 7 1 0.127701 15.238555 15.696258 0.904692 0 0 0
4393 7 7 0.151627 17.136061 15.560822 2.109312 0 0 0
4394 7 12 -0.402211 15.910576 15.7627 3.758268 0 0 0
4395 7 9 0.147855 15.134025 16.29245 3.963518 0 0 0
4396 7 10 0.131183 16.507692 18.321095 3.197203 0 0 0
4397 7 3 -0.052415 17.26564 17.591362 2.989394 0 0 0
4398 7 4 -0.09034200000000001 18.177336 17.344765 4.195283 0 0 0
4399 7 1 0.133561 17.910669 17.95166 2.163603 0 0 0
4400 7 7 0.145539 18.487844 16.303722 4.089193 0 0 0
4401 7 12 -0.400756 17.391745 17.58148 5.353138 0 0 0
4402 7 9 0.145813 16.63703 17.061239 5.13075 0 0 0
4404 7 3 -0.044431 19.435509 18.27177 4.36945 0 0 0
4406 7 1 0.133319 19.270477 19.353796 4.462708 0 0 0
4444 7 9 0.144882 17.309742 19.362576 1.339438 0 0 0
5781 11 17 0.15033 16.395271 13.58618 3.472005 0 0 0
6665 14 6 0.417 25.162577 16.514408 2.695314 0 0 0
6664 14 11 -0.834 25.700869 16.370062 3.453335 0 0 0
6645 7 6 0.417 24.538353 17.689682 0.363689 0 0 0
6644 7 6 0.417 24.235008 16.277086 0.337902 0 0 0
6643 7 11 -0.834 24.41857 16.959997 0.995391 0 0 0
2268 4 9 0.155835 25.949211 13.128263 1.417518 0 0 0
2279 4 1 0.138529 25.677771 13.616179 6.088903 0 0 0
2329 4 7 0.149998 23.863371 15.329682 6.419688 0 0 0
2339 4 10 0.131474 20.297529 15.626751 6.329093 0 0 0
3129 5 7 0.144056 20.13059 13.092072 4.015129 0 0 0
3130 5 12 -0.413916 22.124987 13.30357 4.536192 0 0 0
3131 5 9 0.131662 21.622509 13.514685 5.362347 0 0 0
3134 5 4 -0.08454399999999999 20.780645 14.245611 1.836349 0 0 0
3136 5 7 0.14939 21.274006 15.032828 2.400375 0 0 0
3140 5 3 -0.058536 21.061892 14.611832 0.363035 0 0 0
3142 5 1 0.135684 22.058722 15.008975 0.386581 0 0 0
3144 5 12 -0.397087 19.697096 16.622066 0.492502 0 0 0
4403 7 10 0.138683 19.821381 17.932421 5.356743 0 0 0
4405 7 4 -0.087343 20.54661 17.890289 3.424756 0 0 0
4407 7 7 0.15233 20.393074 16.930782 3.005962 0 0 0
4408 7 12 -0.401475 20.38098 18.765636 2.371879 0 0 0
4409 7 9 0.151355 20.167015 18.265438 1.575117 0 0 0
4410 7 10 0.13265 22.610905 17.6597 3.131797 0 0 0
4411 7 3 -0.050423 21.953873 17.895576 3.959464 0 0 0
4412 7 4 -0.084131 22.558414 19.216055 4.674943 0 0 0
4413 7 1 0.131177 22.12818 16.980965 4.672338 0 0 0
4414 7 7 0.156673 23.574942 18.996906 4.949158 0 0 0
4415 7 12 -0.400597 21.866295 19.384871 5.905807 0 0 0
5786 12 17 0.154275 25.74972 18.626661 5.079811 0 0 0
6666 14 6 0.417 26.15378 15.49818 3.270519 0 0 0
2142 4 9 0.138857 30.189661 16.629539 0.247279 0 0 0
2147 4 7 0.160735 27.042147 17.699562 0.016055 0 0 0
2148 4 19 -0.402537 28.758171 17.510414 1.02907 0 0 0
2250 4 4 -0.07682899999999999 31.585436 13.356133 1.772605 0 0 0
2252 4 7 0.158029 31.612232 14.492376 1.824926 0 0 0
2256 4 3 -0.049753 30.36409 13.168667 0.825622 0 0 0
2257 4 4 -0.07935 29.012201 13.580959 1.469559 0 0 0