LAMMPS data file via write_data, version 15 Sep 2022, timestep = 2500059

6664 atoms
17 atom types
6620 bonds
16 bond types
12056 angles
26 angle types
18888 dihedrals
28 dihedral types

70.16459438627686 109.56541161372394 xlo xhi
71.5235923862767 110.92440961372421 ylo yhi
69.8850933862768 109.2859106137239 zlo zhi

Masses

1 1.00794
2 1.00794
3 12.0107
4 12.0107
5 1.00794
6 1.00794
7 1.00794
8 1.00794
9 1.00794
10 15.999
11 15.9994
12 15.9994
13 28.085501
14 12.0107
15 12.0107
16 1.00794
17 15.9994

Pair Coeffs # lj/cut/coul/cut/omp

1 0.038 2.44997
2 0.038 2.44997
3 0.039 3.87541
4 0.039 3.87541
5 0.038 2.44997
6 0.038 2.44997
7 0.038 2.44997
8 0 0
9 0.038 2.44997
10 0.228 2.85978
11 0.228 2.85978
12 0.228 2.85978
13 0.04 4.05343
14 0.148 3.61705
15 0.039 3.87541
16 0.038 2.44997
17 0.228 2.85978

Bond Coeffs # harmonic/omp

1 340.618 1.105
2 340.618 1.105
3 322.716 1.526
4 340.618 1.105
5 340.618 1.105
6 340.618 1.105
7 384 1.42
8 540.634 0.96
9 540.634 0.96
10 833.72 1.208
11 392.8 1.665
12 283.092 1.52
13 340.618 1.105
14 615.322 1.23
15 322.716 1.526
16 340.618 1.105

Angle Coeffs # harmonic/omp

1 39.5 106.4
2 44.4 110
3 39.5 106.4
4 44.4 110
5 39.5 106.4
6 46.6 110.5
7 44.4 110
8 44.4 110
9 70 109.5
10 46.6 110.5
11 44.4 110
12 58.5 106
13 33.3 113.4
14 39.5 106.4
15 57 109.5
16 57 109.5
17 42.3 113.1
18 31.1 149.8
19 46.6 110.5
20 45 109.5
21 50 120
22 68 120
23 46.6 110.5
24 44.4 110
25 55 120
26 39.5 106.4

Dihedral Coeffs # harmonic/omp

1 0.158 1 3
2 0.158 1 3
3 0.158 1 3
4 0.158 1 3
5 0.158 1 3
6 0.158 1 3
7 0.158 1 3
8 0.13 1 3
9 0.158 1 3
10 0.158 1 3
11 0.158 1 3
12 0.158 1 3
13 1 1 3
14 0.13 1 3
15 0.13 1 3
16 0.158 1 3
17 0.158 1 3
18 0.158 1 3
19 0.158 1 3
20 0.3 1 3
21 0.158 1 3
22 0.158 1 3
23 0.158 1 3
24 0 1 0
25 0 1 0
26 0.158 1 3
27 0 1 0
28 0 1 0

Atoms # full

877 2 11 -0.396527 74.52158669349375 75.62526019981266 73.5806307435196 1 0 0
878 2 8 0.141191 75.08782413281826 76.27603462949489 73.97831158014331 1 0 0
874 2 4 -0.0799242 73.72204171738154 76.43141708520726 72.6808943973956 1 0 0
870 2 11 -0.394449 71.84478531838226 74.73945103707241 73.68594540080169 1 0 0
873 2 3 -0.0478575 72.91936370668479 75.71428873097028 71.58954096906132 1 0 0
867 2 4 -0.0725591 72.13364456626029 74.49887308760586 72.32972245420041 1 0 0
872 2 9 0.133454 72.13903115530753 76.4354608416483 71.14320358062616 1 0 0
869 2 6 0.158485 72.75964228130745 73.61198230795148 72.13028363329417 1 0 0
875 2 1 0.140249 73.55863481138846 75.41106206887775 70.73182072319496 1 0 0
871 2 8 0.15384 72.69141814536322 74.77612245662564 74.1565337140294 1 0 0
866 2 3 -0.0447152 70.9571902240774 74.07426393933126 71.50809281585546 1 0 0
714 2 1 0.141495 74.06511398319043 72.48389545940324 74.19861784902984 1 0 0
868 2 1 0.131787 71.36034254338655 73.65392020321669 70.60036157598242 1 0 0
546 1 11 -0.403997 75.05717082422932 72.82667865256737 70.23215505208456 0 0 1
863 2 11 -0.398215 70.65332233165832 71.90101650426553 72.4796169853266 1 0 0
879 2 9 0.131003 71.94512066926183 77.16342881214956 73.95403957672116 1 0 0
876 2 6 0.155578 74.46351881652873 76.96264483829401 72.13097606713234 1 0 0
886 2 9 0.132865 74.40517408794464 76.83527880025039 75.91352393245545 1 0 0
547 1 8 0.145242 74.78947594929235 73.54340084996133 109.06946383661807 0 0 0
865 2 9 0.13231 70.39754306747642 74.89864683292308 71.06680449434067 1 0 0
703 2 9 0.152734 75.93505722328854 73.99968143550839 74.78171239925923 1 0 0
704 2 3 -0.0440566 76.59225942400911 73.27199763070107 74.22803293320185 1 0 0
707 2 2 0.146014 76.6931453262171 73.5583799893905 73.13311362264257 1 0 0
880 2 3 -0.050113 72.90240452296374 77.53285183084844 73.445117145052 1 0 0
711 2 9 0.137996 74.70997272488793 110.6615524294026 72.92575276118707 1 -1 0
705 2 4 -0.0516623 76.22782176957789 71.82203531792882 74.34496862875274 1 0 0
6171 37 16 0.15307 73.80306708693276 74.47240615176932 75.56284599468759 1 0 0
6662 19 10 0 70.61148990092622 76.40375712047974 75.88804630050606 0 1 1
887 2 3 -0.0493492 73.85048657260711 77.81547658169755 75.86896448888919 1 0 0
889 2 1 0.135233 72.86315835415931 77.47125743715624 76.29432911193953 1 0 0
6627 2 10 0 77.7804223699256 78.07028011233999 73.39011510453125 0 0 0
706 2 1 0.153907 77.57469461528696 73.37169410790253 74.6798986939963 1 0 0
5581 8 9 0.127169 81.32796040837783 73.64024732823653 73.29091074941232 0 0 1
5583 8 4 -0.09745180000000001 79.85196640357044 73.1667209125976 71.66755049348573 0 0 1
5591 8 1 0.125494 78.76616123823128 74.8068546627729 72.54497030907605 0 0 1
916 2 4 -0.07623050000000001 81.73627784035568 76.48072497958432 75.47825256548586 1 0 0
918 2 6 0.157333 81.03031422118397 76.64523575946748 74.6563714717692 1 0 0
912 2 11 -0.406023 79.31696848806219 75.26211508908855 75.31758034699477 1 0 0
913 2 8 0.140655 79.81947829762427 74.66329610178111 74.75669245957152 1 0 0
5582 8 3 -0.06973600000000001 80.68665351049263 72.78187259535937 72.94406063283039 0 0 1
5584 8 1 0.122885 79.9837843478797 72.5549261855745 73.84584770942114 0 0 1
5589 8 3 -0.07129340000000001 79.51834186532007 74.5886360322627 71.68311472939406 0 0 1
919 2 11 -0.395867 82.57413069307354 75.35166675256214 75.26622007079753 1 0 0
5588 8 9 0.125182 80.44441361913034 75.14406604867668 71.73575321175458 0 0 1
5460 8 11 -0.407317 81.29468465136121 77.54094914597844 72.41478396615987 0 0 1
5585 8 6 0.141564 80.51016284830143 73.04281438057315 70.80988877202557 0 0 1
922 2 3 -0.0521082 82.57315966312659 77.75916249508 75.73244799397489 1 0 0
5575 8 3 -0.0577912 83.03439895997576 71.93774233573473 72.35835380529994 0 0 1
5586 8 11 -0.419199 78.712280388795 72.31310330886967 71.52475848011467 0 0 1
5587 8 8 0.127792 78.89031010930756 71.84685620929473 70.73820945632411 0 0 1
5454 8 8 0.157059 82.03131461033408 75.69686480989823 71.02011115125596 0 0 1
5459 8 6 0.156571 81.90174375754317 77.67897926784792 70.41564349494307 0 0 1
924 2 1 0.12979 82.60981406249995 78.16149794569712 74.70161017660763 1 0 0
5574 8 9 0.136434 83.0595037674515 72.495237575873 71.44788071165623 0 0 1
5595 8 9 0.131768 79.6141946119419 77.05562270239483 70.88567191221433 0 0 1
5592 8 6 0.141862 77.88421526585196 74.54226411466739 70.3343291809726 0 0 1
5577 8 1 0.136599 83.48216828937181 72.53329537845987 73.1300919215702 0 0 1
5452 8 6 0.158724 82.88845752572641 76.033970525491 73.06313276454772 0 0 1
5453 8 11 -0.395311 82.90187170794658 75.38215911517726 71.11357229942084 0 0 1
5590 8 4 -0.0915517 78.8870993462131 75.03833503004076 70.39536386640253 0 0 1
5598 8 1 0.131465 77.97108585942277 76.80689220876653 71.15928904335144 0 0 1
5596 8 3 -0.0573412 78.76430937262228 76.58148968797879 70.47854233110493 0 0 1
920 2 8 0.151787 83.48550272108838 75.48768982688652 75.57705893173126 1 0 0
5450 8 4 -0.0752992 83.50879099344853 76.11843613837148 72.13984594903798 0 0 1
5451 8 1 0.129776 84.63964584577202 74.57339110370165 73.20110131672882 0 0 1
5449 8 3 -0.0455831 84.81306564412426 75.50929665677069 72.61254108870607 0 0 1
5443 8 4 -0.08630060000000001 85.7906006566479 75.15072798251398 71.48726870439364 0 0 1
5444 8 1 0.133625 87.397730465693 76.32363417487423 72.2164555083711 0 0 1
5448 8 9 0.131793 85.24847905379241 76.20432426613837 73.34549741347145 0 0 1
6528 2 12 -0.224546 87.07228937771852 76.72639127259102 75.16040441565006 0 0 1
6608 2 5 0.292576 86.1570894436536 76.62209266634159 75.43059049098844 0 0 1
5456 8 3 -0.0556508 83.5663337266731 77.55489116596291 71.64592852555309 0 0 1
6209 40 16 0.178998 88.67184711655108 74.42615763580993 73.18051249365134 0 0 1
5442 8 3 -0.0541608 86.80076477237418 76.1460147506135 71.25630146686761 0 0 1
5446 8 11 -0.389765 86.35819989898415 73.98239791348308 71.99226584401902 0 0 1
5567 8 9 0.136383 85.5215302001786 71.8905851817685 71.92416376002699 0 0 1
5447 8 8 0.155418 86.43095191630314 74.29646686352125 72.88886898375144 0 0 1
6213 40 17 -0.410592 87.82093551557834 72.86920904711097 74.72909010593182 0 0 1
6202 40 14 -0.0470753 88.68387493639204 73.34687834222107 75.4705078280402 0 0 1
5570 8 1 0.13062 85.48040633607667 110.74645436667461 73.65318545580725 0 -1 1
5553 8 9 0.13622 88.93160522285177 72.40196282933098 70.64383711684378 0 0 1
925 2 6 0.154327 84.58618203415756 78.05219686425707 75.36708787844515 1 0 0
6208 40 16 0.178983 88.895519517059 76.00232570383534 73.74114926559476 0 0 1
6204 40 15 -0.0423901 89.42518840057646 74.98304651423824 73.64788467793834 0 0 1
5455 8 9 0.12366 84.19663271789369 77.56452927122612 70.7448014349505 0 0 1
5438 8 6 0.15513 88.52514197303219 75.0807513330092 70.67883529854804 0 0 1
5445 8 6 0.151502 85.30359181854169 74.89525137181025 70.51685549411651 0 0 1
5437 8 1 0.135795 89.1526360122712 77.51239785213478 70.73735284040829 0 0 1
6203 40 15 -0.0357103 89.79286935493609 74.34752940601737 74.97401258341438 0 0 1
923 2 4 -0.0844293 83.99803819241217 77.8206523316583 76.22996803348214 1 0 0
5458 8 1 0.129805 84.2452521312166 78.21893528281481 72.32102332174316 0 0 1
5441 8 9 0.130249 86.30632042318004 77.10754936164108 70.92391381292197 0 0 1
5436 8 4 -0.0832697 87.81910242681444 75.81059199624318 70.21196680850029 0 0 1
6206 40 16 0.157369 89.86927205387579 75.16072162497174 75.67432980590631 0 0 1
6215 40 17 -0.400878 90.66748587484045 72.6763605826765 72.48252189430114 0 0 1
6205 40 16 0.157361 90.8313413942755 73.95105640263641 74.85079487195227 0 0 1
6212 40 16 0.158593 90.17317397358636 75.75041470505244 71.70522829687533 0 0 1
6207 40 15 -0.0331733 90.56869808638903 75.16822755634495 72.6053263354083 0 0 1
6211 40 16 0.158545 91.32741513189626 75.84293453847599 72.98894567687853 0 0 1
6210 40 14 -0.0393727 91.11232794102172 73.8052176332343 72.19569761798148 0 0 1
5694 6 15 -0.0423901 95.22548775176341 76.62206392677697 75.65257740789926 0 0 0
5696 6 16 0.157538 93.62027262142853 76.41660590388453 74.18958624717308 0 0 0
6216 40 16 0.149916 92.18231403013269 73.77933889789601 71.88180086681626 0 0 1
5693 6 15 -0.0356356 93.74412023556391 76.80240326365944 75.2069595412766 0 0 0
2626 4 9 0.13411 93.8106132686865 74.99588737571658 71.45281369424258 0 0 1
5692 6 14 -0.0468792 92.7319637399452 76.13875980407983 76.18101960784207 0 0 0
6063 30 17 -0.410428 93.87955940841019 72.72500473804853 74.3346180879509 0 0 0
2627 4 3 -0.0537002 94.18555750964566 75.27164515200793 70.44514333712053 0 0 1
5701 6 16 0.158521 95.14084547392254 74.47466472487113 75.34587843156392 0 0 0
5697 6 15 -0.0331838 95.8837450282083 75.32475314324297 75.16987402838792 0 0 0
5700 6 14 -0.0441644 96.29414895278795 75.21722445317162 73.72687008025395 0 0 0
5699 6 16 0.179051 95.77001322133356 77.45540022461218 75.21611748692463 0 0 0
6052 30 14 -0.0468783 92.94869501739251 72.147975904432 74.87239481475822 0 0 0
2624 4 11 -0.39496 92.43403387536699 76.94156567592303 70.65922795026465 0 0 1
5706 6 16 0.150112 96.49798080938785 74.15677993434105 73.329835114675 0 0 0
2629 4 1 0.135207 95.22993494157583 75.22687676821197 70.62616157171645 0 0 1
2620 4 3 -0.0531638 94.58274330360143 77.79717277180652 70.81758743315494 0 0 1
5704 6 16 0.15186 91.71209232722167 76.5762999691845 76.216520348462 0 0 0
5935 22 16 0.157124 95.99919893088499 72.08903095107577 71.62543759704106 0 1 0
5695 6 16 0.157529 93.46476057669315 77.91622821632683 75.1123932054578 0 0 0
6053 30 15 -0.0356344 92.97029833345428 71.92030659922092 76.38140641444458 0 0 0
2622 4 1 0.130331 94.84797382281943 77.52790673215998 71.90214076055109 0 0 1
2621 4 4 -0.0754172 93.68397151834692 76.7160085223308 70.1637765230693 0 0 1
2614 4 4 -0.0787171 95.90760418018932 78.11624520239604 70.12683475358887 0 0 1
5705 6 17 -0.403671 96.85664622826214 76.24281243859605 73.29157529056035 0 0 0
2616 4 6 0.152719 96.70359359596635 77.48095741491606 70.58007371078988 0 0 1
761 2 3 -0.0461564 101.19064648966958 74.09521355953484 73.21267101596204 0 0 0
760 2 9 0.130878 101.7121521705712 74.06788735697594 72.2774193815654 0 0 0
762 2 4 -0.0792968 99.7720413945379 74.65983574480738 72.94814604684309 0 0 0
764 2 6 0.160155 99.43914865980807 75.19784510673767 73.79864088512456 0 0 0
770 2 1 0.134606 99.25753680270546 76.54490666619009 72.08577095611442 0 0 0
768 2 3 -0.0454281 99.86873755747335 75.71346514498516 71.79097761471932 0 0 0
767 2 9 0.131879 100.95700751937923 76.05747972724956 71.8529621510672 0 0 0
765 2 11 -0.397865 98.86398989364675 73.61252757108676 72.64549589164989 0 0 0
763 2 1 0.135335 101.86719845523464 74.85789901130215 73.76259859830883 0 0 0
755 2 4 -0.0798 101.09091870559335 72.76066515224208 74.00072703918691 0 0 0
766 2 8 0.143243 98.22499281505415 74.00173024668882 72.12490112813182 0 0 0
754 2 3 -0.0549877 102.4539919529825 72.48967993894411 74.69912675445224 0 0 0
758 2 11 -0.405011 100.25195517578743 72.92729334308781 75.08559668108488 0 0 0
756 2 1 0.129887 102.78682236837992 73.35477501804785 75.26852904021398 0 0 0
759 2 8 0.146101 99.432324019936 73.2921114679233 74.85889692952536 0 0 0
757 2 6 0.156022 100.8138554599636 71.84177663051028 73.43395072106833 0 0 0
5702 6 16 0.158568 96.72894046267194 75.23793202577357 75.86796367832453 0 0 0
769 2 4 -0.07624789999999999 99.5853162187141 75.09003841831135 70.38887466612388 0 0 0
773 2 8 0.149004 98.0548453365206 74.01610739169665 70.78374932075262 0 0 0
771 2 6 0.160728 100.16940796760844 74.21029562235776 70.35788572623626 0 0 0
1325 2 11 -0.400329 101.79566040603672 72.19025604837606 70.45397106830166 0 0 1
1326 2 8 0.145895 102.63230670950561 72.34740594276882 70.83612049705151 0 0 1
772 2 11 -0.401599 98.23443218462057 74.75617552307556 70.20052110124098 0 0 0
3012 5 8 0.145069 102.01626450476608 77.65492079930452 72.79717510642149 0 0 0
860 2 4 -0.0751957 109.39101836134574 73.07277878185488 72.07815063794696 0 0 0
753 2 9 0.13122 103.24448488697169 72.39423676919222 73.91251093226569 0 0 0
861 2 1 0.132536 109.08008306323583 73.8956123830966 74.0390180631951 0 0 0
862 2 6 0.154538 108.7278547528524 72.76538218286649 71.24923775936371 0 0 0
859 2 3 -0.0510065 108.46067195641976 73.44609753891096 73.24743061406811 0 0 0
850 2 8 0.158098 104.03376186046958 76.91760373232515 74.60902734087277 0 0 0
858 2 9 0.132669 108.05825650482899 72.53849642077061 73.69949225076522 0 0 0
855 2 6 0.156638 107.75969009301625 75.28125916537135 72.22576121389015 0 0 0
854 2 1 0.1335 107.02610387028658 75.45930937699131 74.55345126469629 0 0 0
852 2 3 -0.0472018 106.3655217259352 74.92628240023822 73.84223156223241 0 0 0
853 2 4 -0.0768906 107.34233072482269 74.36985750554378 72.71725977547425 0 0 0
851 2 9 0.131402 106.07531325298044 73.98317076539514 74.3133289233884 0 0 0
846 2 4 -0.07409689999999999 105.16501884133706 75.87169546090306 73.43859661610264 0 0 0
848 2 6 0.159571 104.74500340073627 75.43507808930111 72.55526982703879 0 0 0
849 2 11 -0.390802 104.20644102942632 76.00972447839693 74.45735481228316 0 0 0
856 2 11 -0.389869 106.51325380809084 73.74281102782781 71.6895488800737 0 0 0
842 2 11 -0.393882 106.9608470567734 77.97107397861211 74.99342908299013 0 0 0
844 2 9 0.131004 106.5290319845782 76.88875926295545 72.31139110241944 0 0 0
845 2 3 -0.0495496 105.70695860084037 77.24734212002295 72.97387300502338 0 0 0
857 2 8 0.157065 107.10168663420234 73.42216161516373 70.98726875715829 0 0 0
847 2 1 0.132186 104.93415588277176 77.63663865679723 72.20710626876432 0 0 0
736 2 6 0.15052 107.41930852838183 71.67847792535966 75.85162231522474 0 0 0
836 2 8 0.141078 109.28588719401154 78.26562166982184 71.68141943108567 0 0 0
791 2 1 0.134729 104.16602663067258 77.15032261712538 70.15977276146654 0 0 0
801 2 8 0.15148 108.3000676447279 76.9914727912393 70.22899634730831 0 0 0
792 2 6 0.150066 106.4709386701764 77.20189159073307 70.0429405938971 0 0 0
885 2 8 0.149269 74.73771498187726 78.91141249953559 72.97645199823037 1 0 0
882 2 1 0.129676 72.51303924703831 78.33944467214627 72.75642186830851 1 0 0
881 2 4 -0.076719 73.77746103782579 78.32186614252669 74.41731677384092 1 0 0
884 2 11 -0.399922 75.00982851280313 78.50222883297795 73.8100148508491 1 0 0
883 2 6 0.153408 73.26014168539919 79.36173991145544 74.40656159732092 1 0 0
2117 4 4 -0.0711325 73.80923243308969 83.40516214657724 74.71900391907222 1 0 0
2116 4 3 -0.0352933 74.80861122249807 82.58535820641602 73.93939175984819 1 0 0
2115 4 9 0.133615 74.43813672273943 81.54875838366382 73.94772153917407 1 0 0
2119 4 6 0.157842 73.63595467951627 82.95451726360844 75.69928005624294 1 0 0
2118 4 1 0.135175 74.77410078327848 82.80097296634015 72.81574306624836 1 0 0
2123 4 3 -0.0494071 72.5585918210654 83.7453808302784 73.9659451459064 1 0 0
2122 4 9 0.133431 72.15574571291235 82.762228484033 73.6247933509703 1 0 0
828 2 11 -0.397138 71.37071139505834 80.5124584932652 72.47627845418545 1 0 0
821 2 11 -0.391113 73.22569019080201 79.73592145112947 70.69796932933936 1 0 0
829 2 8 0.151574 72.21839648598291 80.4864660146359 71.91594136913838 1 0 0
2113 4 11 -0.389715 76.24159402313076 82.20914397428635 75.86391154800009 1 0 0
2109 4 4 -0.0527202 76.25298383414238 82.61088203671235 74.4692589109853 1 0 0
824 2 3 -0.0484747 70.77933466697532 80.20513093634597 70.08150896040691 1 0 0
2127 4 11 -0.399907 71.49097473583805 83.56583935076489 76.06922744869433 1 0 0
2124 4 4 -0.06842040000000001 71.5444105337202 84.40385096252454 74.87600058168096 1 0 0
822 2 8 0.159237 73.86158192678876 79.21867232283607 70.16742877770349 1 0 0
2125 4 1 0.136947 72.71637002131395 84.26101521182457 73.02229015264462 1 0 0
2114 4 8 0.140236 76.4379397161389 82.98186893826627 76.32963555200133 1 0 0
823 2 9 0.135327 70.4376191758605 79.14121988141831 70.11084230733816 1 0 0
825 2 4 -0.0772938 70.43051408786627 80.9149509575025 71.46159193680158 1 0 0
827 2 6 0.15471 70.69907679554387 81.90499665226676 71.20439818823723 1 0 0
896 2 1 0.134739 76.18785148521638 78.54374472259767 75.89826049344101 1 0 0
6663 20 10 0 70.66508904843026 80.06701327081853 76.46303949262477 1 -1 0
6664 20 10 0 71.41407235810588 80.48423340060089 75.61348742220858 1 -1 0
2035 3 8 0.14981 72.22755396632368 83.63691381533376 70.25828232841728 1 0 1
2034 3 11 -0.397481 73.00837411298949 84.09731534671947 70.07463035794979 1 0 1
6628 2 10 0 78.4264824882835 78.71542895362028 74.14732957383427 0 0 0
2112 4 6 0.165583 76.6051445128441 83.70928383407272 74.38442494069822 1 0 0
5457 8 4 -0.0829984 82.17129411663028 78.02198425043676 71.40200574168219 0 0 1
2110 4 1 0.153586 77.18189459802134 82.05759258401545 72.62385570947929 1 0 0
5461 8 8 0.14688 81.16959446127821 78.28479869296312 73.03054923053713 0 0 1
2111 4 2 0.145632 78.19077269027157 81.64897417584255 73.97045397198077 1 0 0
2108 4 3 -0.0450442 77.160929752334 81.71992484017177 73.66384287575538 1 0 0
2107 4 9 0.152455 76.73228599381211 80.67296736821031 73.71387524679587 1 0 0
5468 8 8 0.144564 80.52181627647502 79.41435035990678 73.16601515915721 0 0 1
5474 8 11 -0.402747 80.43977505733436 82.1560117636998 71.78944262772292 0 0 1
5475 8 8 0.151688 79.72515693018146 82.73519800486201 71.8936508656161 0 0 1
5471 8 4 -0.0794755 81.34019814507643 82.4844093329977 72.76730298679077 0 0 1
5473 8 6 0.148841 81.02605605472141 82.3050384460085 73.76538892795348 0 0 1
5467 8 11 -0.403586 81.21654267445373 79.85351592098871 73.63889177672228 0 0 1
5462 8 9 0.129648 80.95979338894003 79.84724917902129 71.05753124067293 0 0 1
5464 8 4 -0.0862173 82.29468644177754 80.11289263566033 72.68648049289914 0 0 1
5470 8 3 -0.061878 82.59977570580111 81.63364345450394 72.67216746787041 0 0 1
5477 8 3 -0.0549973 81.66244589136356 83.98557039771666 72.76771186461123 0 0 1
5463 8 3 -0.0577596 81.98626497916713 79.52653935954694 71.36601778178579 0 0 1
6459 2 12 -0.231573 82.21651478625051 82.0681157821569 75.81035581111857 0 0 1
6582 2 5 0.267173 82.3238853249336 81.10034644965671 75.828657760842 0 0 1
5476 8 9 0.137792 82.60761425719795 84.1742846222956 73.32564373873348 0 0 1
4978 8 8 0.143499 78.75153645745462 84.51803627929549 72.14290167545349 0 0 0
921 2 9 0.13115 81.95976369009601 78.54843751318825 76.22524782053183 1 0 0
5686 5 16 0.158522 79.47403983445358 83.42453973816367 76.1184217218108 0 0 0
5691 5 16 0.15011 79.47937269777941 80.8615110058655 75.72297030568006 0 0 0
5472 8 1 0.13037 83.43175705114022 81.7378545870312 73.37540994410224 0 0 1
5608 8 8 0.155196 78.35310520123812 80.9915416378963 71.24011808559275 0 0 1
5487 8 6 0.161646 81.78667053084993 82.81006097837795 109.2763226593748 0 0 0
5484 8 3 -0.0602482 82.79556518280901 84.60488698109863 70.56279384157705 0 0 1
5466 8 6 0.148399 83.2476152899552 79.70855068842769 73.06259653890315 0 0 1
5469 8 9 0.127559 83.18303840006318 81.84360241259182 71.72312331170808 0 0 1
5481 8 11 -0.402599 80.40789108435362 84.99933287717548 70.88182449986154 0 0 1
5616 8 8 0.161889 77.58076773621929 83.69244774719863 70.46693641501868 0 0 1
5607 8 11 -0.391706 78.1201652813117 80.10621780016476 71.06454031202452 0 0 1
5614 8 11 -0.388872 77.33501797157501 82.74941104168256 70.37570552560369 0 0 1
5482 8 8 0.138158 80.51016258064442 84.43735745079478 70.09915330658555 0 0 1
6467 2 12 -0.148249 83.5188813901432 84.50072017300573 75.83006411611913 0 0 1
5465 8 1 0.127527 82.74327484382445 80.07256870792195 70.64115238705698 0 0 1
6524 2 13 -0.419241 87.53798803288589 78.23924410932713 74.44660342948647 0 0 1
6518 2 12 -0.162806 89.19275947557196 78.31776380251692 74.2782901917619 0 0 1
6525 2 12 -0.200892 86.78633944119548 78.55821007581045 72.98417285343832 0 0 1
6449 2 12 -0.211082 85.99975530145042 81.28014014145535 72.56057837285219 0 0 1
6537 2 13 -0.345629 86.8185967254481 79.95007160433856 71.97997339896096 0 0 1
6527 2 12 -0.159311 88.35527778666722 80.5776558002454 72.09726631139135 0 0 1
6607 2 5 0.399689 88.68234343777289 81.04763414505001 72.87503297032909 0 0 1
6450 2 12 -0.153106 85.10659926028113 83.64574605093684 73.46065519342439 0 0 1
6457 2 12 -0.163111 86.41291548045653 83.85580848685765 71.212094948054 0 0 1
6451 2 13 -0.225267 86.28019261584198 82.91615643737134 72.58047797169473 0 0 1
6456 2 12 -0.133071 87.5397177115036 83.01384187703039 73.64652060153215 0 0 1
6530 2 13 0.0157888 88.48592940020642 83.81731010255008 74.80589678738276 0 0 1
6588 2 5 0.349497 88.182081805968 82.74755356977792 70.37059815760668 0 0 1
6606 2 5 0.297226 87.26721843632114 80.44461895707374 74.71103588098705 0 0 1
6526 2 12 -0.218262 86.98894818278342 79.62276369853188 75.1835128023302 0 0 1
6458 2 12 -0.216725 84.8817145175444 82.1892224469521 75.44383005121938 0 0 1
6581 2 5 0.308468 85.7930957153203 82.6028381804898 75.53993260794437 0 0 1
6460 2 12 -0.262846 86.42308231648624 79.58738974916437 70.4156837143435 0 0 1
5483 8 9 0.126681 83.66897292513201 84.21447013785232 71.15357315340431 0 0 1
6579 2 5 0.347626 85.51917853084609 84.36145962680492 73.93748233335116 0 0 1
6610 2 5 0.375985 89.72103087705197 80.86114611893262 76.15222258061081 0 0 1
6532 2 12 -0.125516 88.19974366183763 83.15427518469818 76.33847189300572 0 0 1
6587 2 5 0.244221 89.71806034183133 80.13728982933112 70.20951201602954 0 0 1
6462 2 13 -0.323627 83.57392038059089 82.90654309832229 76.24652342981513 0 0 1
6536 2 12 -0.129706 88.84869135918488 80.59314432258492 76.5119413333848 0 0 1
6605 2 5 0.3035 91.11594616645556 78.70770781166637 72.42159513968247 0 0 1
6517 2 12 -0.220661 91.55881035917895 78.422814858913 73.18470636243683 0 0 1
6535 2 12 -0.113423 90.02259038851159 83.27126409791994 74.26457913186523 0 0 1
6519 2 13 -0.336246 90.68484043058592 79.06464878231218 74.42525920843386 0 0 1
6523 2 12 -0.165797 90.73544873060926 80.7102186004754 74.08272525879005 0 0 1
6549 2 12 -0.162715 91.05096539381933 82.32659643329035 71.96393279216005 0 0 1
6547 2 13 -0.128865 91.153773715006 82.24674853804719 73.63238109766637 0 0 1
6613 2 5 0.324338 93.39854458838293 82.0838176029612 72.07219117993063 0 0 1
6543 2 12 -0.19459 94.11661692373347 81.97769025590598 71.39563441687288 0 0 1
6553 2 12 -0.181999 94.20458436620457 79.5891256366456 73.58142220218217 0 0 1
6617 2 5 0.340925 93.4391143120616 80.10448934829338 73.86768438036974 0 0 1
6552 2 13 -0.329793 95.67725085094072 80.13046386222177 74.17828792455917 0 0 1
6541 2 12 -0.158447 95.41898646746398 81.69915784111257 73.76806062322049 0 0 1
6546 2 13 -0.353628 91.01347069417717 83.20760757418516 70.53135785030308 0 0 1
6542 2 12 -0.146547 92.63897267485822 82.67056974110236 74.17857781446045 0 0 1
6423 2 13 -0.352463 94.38031691803708 82.90225005789917 74.21929137097729 0 0 1
6431 2 12 -0.21738 94.91524108948963 83.15562479634661 75.74695323146159 0 0 1
6554 2 12 -0.221297 95.67744607812614 80.24208538224732 75.80358247086986 0 0 1
6522 2 12 -0.22793 91.19942270834783 78.87945358470783 75.97636751646147 0 0 1
6618 2 5 0.309064 94.95293036184547 80.82075517343102 76.1624881510821 0 0 1
6434 2 12 -0.191481 94.60112382622759 84.30734058438527 73.34123780591375 0 0 1
6612 2 5 0.346034 91.84170276153756 81.7416713664986 76.07135046728904 0 0 1
2615 4 1 0.123138 95.98371336049476 80.21744550656669 70.81082221797568 0 0 1
6540 2 12 -0.171872 92.5014703938378 81.03149321182974 76.2361369268204 0 0 1
6551 2 12 -0.148284 92.49983448248452 83.24045799038792 109.2492836863281 0 0 0
2619 4 9 0.127749 94.04494806200307 78.75217325428186 71.08723461161037 0 0 1
3019 5 8 0.141568 101.36759235500728 77.20529809986989 74.03937494612516 0 0 0
3017 5 6 0.163264 99.66492446253969 78.08154868827154 73.92915783868389 0 0 0
3011 5 11 -0.396356 102.07328590060021 78.21816558885584 71.95865534431688 0 0 0
3018 5 11 -0.404527 101.51350565197656 77.973249557121 74.58051337338794 0 0 0
6614 2 5 0.278129 97.01982291473774 79.88951636158951 72.65838182944573 0 0 1
3013 5 9 0.137332 99.85340210977479 79.79049670708483 72.44508180455044 0 0 0
3015 5 4 -0.0718897 100.41273554702452 78.83259997109973 74.32544587721809 0 0 0
6544 2 12 -0.2448 97.13337401757062 79.69149387813917 73.55290993845412 0 0 1
6012 27 15 -0.0331823 97.5971094177548 83.19705373798526 72.3925464825937 0 0 1
6015 27 14 -0.0441623 98.6682203893473 83.26858090118303 71.37598345070766 0 0 1
6020 27 17 -0.403669 99.71366891761433 82.64440765501949 71.62506885720323 0 0 1
3014 5 3 -0.0465697 100.69660705098657 79.80435366614512 73.181699825077 0 0 0
3016 5 1 0.133286 100.74172977332391 80.88820934753153 73.48548737362958 0 0 0
3006 5 9 0.134001 101.61694166731314 80.41456627527977 70.52709644088024 0 0 0
6011 27 16 0.157539 99.01680949581167 82.72962109360147 74.74139998409814 0 0 1
6008 27 15 -0.0356361 99.0141439917856 83.78063092286722 74.49409873726077 0 0 1
3008 5 4 -0.0784228 102.02678048085595 79.53973806825658 72.48535825105779 0 0 0
3009 5 1 0.130615 101.8712372680579 81.54456160052165 71.74665726891097 0 0 0
6017 27 16 0.158572 97.42333101570111 82.1802143302289 72.63964783416611 0 0 1
3007 5 3 -0.0445419 102.2507296888252 80.56907065622042 71.41192480534247 0 0 0
3023 5 1 0.129754 98.90454806447397 79.97651935898227 75.20788591152477 0 0 0
2610 4 11 -0.414136 98.64540815173893 79.41428777988219 70.42119372900459 0 0 1
3021 5 3 -0.0475503 99.77305830306493 79.45537802225044 75.58452415117699 0 0 0
6009 27 15 -0.0423901 97.82923079939293 84.1283733844405 73.56881862209148 0 0 1
3025 5 11 -0.394862 101.26302741562361 81.36625093101144 75.65219668441328 0 0 0
2611 4 8 0.13528 98.26161937431422 79.21522738235785 71.25816142860604 0 0 1
6016 27 16 0.158522 96.67911606615422 83.5534055538446 71.99048479823911 0 0 1
6014 27 16 0.179051 97.0068052514472 83.99926985581827 74.32587009203358 0 0 1
6010 27 16 0.157529 98.57125000954446 84.08251737819577 75.41237871983401 0 0 1
6019 27 16 0.15186 101.29709257158399 83.51586782008788 74.30752243500595 0 0 1
3020 5 9 0.135694 99.35633656875214 78.61435073078533 76.21002548232752 0 0 0
6007 27 14 -0.0468791 100.42056698685708 84.25169534217854 74.13370024552617 0 0 1
6021 27 16 0.150114 98.70679353572415 84.28373615467262 70.87635615600466 0 0 1
3010 5 6 0.160103 102.84063759524307 79.72763650691742 73.28624644688848 0 0 0
6576 2 5 0.29776 97.08201613591899 81.8479476350488 76.53848676065992 0 0 1
3026 5 8 0.152311 102.10278637620374 81.35984703101566 76.05386105026429 0 0 0
2998 5 8 0.145267 101.80504590405569 82.07074042675968 70.22209589829271 0 0 0
839 2 4 -0.07932500000000001 106.06436869968957 78.36395458933727 73.99132660484476 0 0 0
841 2 6 0.154326 105.09238317636677 78.70383558067356 74.43789806797558 0 0 0
843 2 8 0.154125 106.79518235166043 78.57143723255697 75.72642935581689 0 0 0
835 2 11 -0.40716 108.31940474727541 78.35081269248761 71.85346739791727 0 0 0
2132 4 1 0.131625 109.12949720051114 83.53725466008997 73.81120440721028 0 0 0
834 2 6 0.148736 108.88257751657808 79.38916738844927 73.45537604451603 0 0 0
2992 5 9 0.129904 103.6552922310866 83.51719761276816 71.14646746441862 0 0 0
3047 5 8 0.135736 104.4260392672085 82.6747400661436 73.80747981279035 0 0 0
830 2 9 0.138684 107.65102837948461 81.0101099375238 71.08670186792088 0 0 0
838 2 3 -0.0440872 106.67702166283382 79.51727417289125 73.30790534736549 0 0 0
833 2 1 0.131992 108.1455476681767 81.59379921893338 72.64299618795208 0 0 0
831 2 3 -0.0479836 108.32651408955188 80.75976034927359 71.95516095327365 0 0 0
832 2 4 -0.08319360000000001 108.10272223032439 79.42382646127163 72.7033310055353 0 0 0
837 2 9 0.133268 106.04030808915299 79.63865027742234 72.42762435384587 0 0 0
3004 5 11 -0.397237 104.5226426950438 81.30168213604102 71.82181845943417 0 0 0
3046 5 11 -0.404772 104.49592048048973 82.03943581779478 74.51828362553275 0 0 0
3001 5 4 -0.0825818 103.70144023449103 80.54952896226342 70.85790953231047 0 0 0
3005 5 8 0.15427 103.97890351789374 81.29482120148302 72.61318565895256 0 0 0
840 2 1 0.131077 106.56747742719114 80.48163915721886 73.81546131932802 0 0 0
3043 5 4 -0.09152970000000001 105.5815848069316 82.5234902550273 75.24429447728845 0 0 0
3045 5 6 0.143253 106.48944992684386 82.61222995869203 74.58380928921173 0 0 0
3003 5 6 0.155403 103.91991684916903 79.47792705268431 70.82273212896662 0 0 0
3049 5 3 -0.07065730000000001 105.3003651378778 83.94959489584619 75.85963965193025 0 0 0
3038 5 6 0.144341 104.33269064170844 80.2471360811554 75.88955360595006 0 0 0