LAMMPS data file. CGCMM style. atom_style full generated by VMD/TopoTools v1.8 on Fri Mar 24 13:22:06 IST 2023
 3596 atoms
 3605 bonds
 6733 angles
 10611 dihedrals
 0 impropers
 24 atom types
 27 bond types
 50 angle types
 65 dihedral types
 0 improper types
 0.001722 32.957384  xlo xhi
 0.006520 32.962182  ylo yhi
 -0.002365 32.953297  zlo zhi

# Pair Coeffs
#
# 1  1
# 2  10
# 3  11
# 4  12
# 5  13
# 6  14
# 7  15
# 8  16
# 9  17
# 10  18
# 11  19
# 12  2
# 13  20
# 14  21
# 15  22
# 16  23
# 17  24
# 18  3
# 19  4
# 20  5
# 21  6
# 22  7
# 23  8
# 24  9

# Bond Coeffs
#
# 1  1-3
# 2  10-13
# 3  10-5
# 4  11-4
# 5  11-8
# 6  12-13
# 7  12-5
# 8  13-5
# 9  14-15
# 10  14-16
# 11  14-17
# 12  15-15
# 13  15-16
# 14  15-19
# 15  15-20
# 16  16-19
# 17  16-20
# 18  18-19
# 19  18-20
# 20  18-4
# 21  19-22
# 22  2-3
# 23  21-22
# 24  3-4
# 25  3-9
# 26  4-6
# 27  4-7

# Angle Coeffs
#
# 1  1-3-2
# 2  1-3-4
# 3  1-3-9
# 4  10-13-10
# 5  10-13-12
# 6  10-13-5
# 7  11-4-3
# 8  11-4-6
# 9  11-4-7
# 10  12-13-12
# 11  12-13-5
# 12  13-10-5
# 13  13-12-13
# 14  13-12-5
# 15  14-15-15
# 16  14-15-16
# 17  15-14-16
# 18  15-14-17
# 19  15-15-15
# 20  15-15-16
# 21  15-15-19
# 22  15-15-20
# 23  15-19-16
# 24  15-19-18
# 25  15-19-22
# 26  15-20-16
# 27  15-20-18
# 28  16-14-17
# 29  16-15-16
# 30  16-15-19
# 31  16-15-20
# 32  16-19-18
# 33  16-19-22
# 34  16-20-18
# 35  18-19-22
# 36  18-20-18
# 37  18-4-3
# 38  18-4-6
# 39  19-18-4
# 40  19-22-21
# 41  2-3-4
# 42  2-3-9
# 43  20-18-4
# 44  3-4-3
# 45  3-4-6
# 46  3-4-7
# 47  4-11-8
# 48  4-3-4
# 49  4-3-9
# 50  6-4-7

# Dihedral Coeffs
#
# 1  1-3-4-11
# 2  1-3-4-18
# 3  1-3-4-3
# 4  1-3-4-6
# 5  1-3-4-7
# 6  13-12-13-10
# 7  13-12-13-12
# 8  13-12-13-5
# 9  14-15-15-15
# 10  14-15-15-16
# 11  15-15-15-16
# 12  15-15-15-19
# 13  15-15-15-20
# 14  15-15-19-16
# 15  15-15-19-18
# 16  15-15-19-22
# 17  15-15-20-16
# 18  15-15-20-18
# 19  15-19-22-21
# 20  16-14-15-15
# 21  16-14-15-16
# 22  16-15-15-16
# 23  16-15-15-19
# 24  16-15-15-20
# 25  16-15-19-16
# 26  16-15-19-18
# 27  16-15-19-22
# 28  16-15-20-16
# 29  16-15-20-18
# 30  16-19-22-21
# 31  17-14-15-15
# 32  17-14-15-16
# 33  18-19-22-21
# 34  19-18-4-3
# 35  19-18-4-6
# 36  2-3-4-11
# 37  2-3-4-18
# 38  2-3-4-3
# 39  2-3-4-6
# 40  20-18-4-3
# 41  20-18-4-6
# 42  4-18-19-15
# 43  4-18-19-16
# 44  4-18-19-22
# 45  4-18-20-15
# 46  4-18-20-16
# 47  4-18-20-18
# 48  4-3-4-11
# 49  4-3-4-18
# 50  4-3-4-3
# 51  4-3-4-6
# 52  4-3-4-7
# 53  5-10-13-10
# 54  5-10-13-12
# 55  5-10-13-5
# 56  5-12-13-10
# 57  5-12-13-12
# 58  8-11-4-3
# 59  8-11-4-6
# 60  8-11-4-7
# 61  9-3-4-11
# 62  9-3-4-18
# 63  9-3-4-3
# 64  9-3-4-6
# 65  9-3-4-7

 Masses

 1 1.007940 # 1
 2 15.999400 # 10
 3 15.999400 # 11
 4 15.999400 # 12
 5 28.085501 # 13
 6 12.010700 # 14
 7 12.010700 # 15
 8 1.007940 # 16
 9 15.999400 # 17
 10 15.999400 # 18
 11 12.010700 # 19
 12 1.007940 # 2
 13 12.010700 # 20
 14 1.007940 # 21
 15 15.999400 # 22
 16 15.999400 # 23
 17 1.007940 # 24
 18 12.010700 # 3
 19 12.010700 # 4
 20 1.007940 # 5
 21 1.007940 # 6
 22 1.007940 # 7
 23 1.007940 # 8
 24 1.007940 # 9

 Atoms # full

1 1 24 0.000000 24.109789 1.342991 31.313614 # 9 
2 1 18 0.000000 24.482664 0.962481 32.278881 # 3 
3 1 19 0.000000 24.468470 2.135634 0.335249 # 4 
4 1 1 0.000000 25.481424 0.574773 31.946609 # 1 
5 1 12 0.000000 23.769844 0.188649 32.505356 # 2 
6 1 21 0.000000 23.561129 2.702133 0.105743 # 6 
7 1 10 0.000000 25.541447 3.072091 0.165745 # 18 
8 1 17 0.000000 25.336819 3.801334 0.803686 # 24 
9 1 24 0.000000 23.615471 1.193892 2.188470 # 9 
10 1 18 0.000000 24.455038 1.698103 1.833444 # 3 
11 1 19 0.000000 25.719414 0.974766 2.174496 # 4 
12 1 1 0.000000 24.232378 2.628786 2.436169 # 1 
13 1 21 0.000000 26.330347 0.814816 1.290411 # 6 
14 1 10 0.000000 26.421427 1.785959 3.106824 # 18 
15 1 17 0.000000 26.258421 2.659979 2.877295 # 24 
16 1 24 0.000000 24.468344 32.716972 3.489951 # 9 
17 1 18 0.000000 25.463192 32.695751 3.001792 # 3 
18 1 19 0.000000 25.594023 31.415472 2.201037 # 4 
19 1 1 0.000000 26.178722 32.707630 3.778186 # 1 
20 1 21 0.000000 26.123674 31.568769 1.276083 # 6 
21 1 10 0.000000 24.209433 31.001654 1.975401 # 18 
22 1 17 0.000000 23.892179 30.665277 2.840479 # 24 
23 1 24 0.000000 26.021238 29.350616 2.868286 # 9 
24 1 18 0.000000 26.352840 30.412825 3.064540 # 3 
25 1 19 0.000000 27.832163 30.589705 3.037492 # 4 
26 1 1 0.000000 26.048620 30.474957 4.105071 # 1 
27 1 21 0.000000 28.059870 31.676542 2.988258 # 6 
28 1 10 0.000000 28.459013 29.903097 4.108477 # 18 
29 1 17 0.000000 28.493193 30.485458 4.864760 # 24 
30 1 24 0.000000 27.714712 30.011000 0.968177 # 9 
31 1 18 0.000000 28.370380 29.912411 1.812261 # 3 
32 1 19 0.000000 29.757349 30.449831 1.471877 # 4 
33 1 1 0.000000 28.335440 28.825500 2.115606 # 1 
34 1 21 0.000000 30.362831 30.799730 2.336877 # 6 
35 1 3 0.000000 29.637386 31.573639 0.684511 # 11 
36 1 23 0.000000 29.210405 32.327621 1.068180 # 8 
37 1 24 0.000000 29.771145 29.307400 32.566944 # 9 
38 1 18 0.000000 30.418610 29.386866 0.552419 # 3 
39 1 19 0.000000 31.874712 29.653687 0.183451 # 4 
40 1 1 0.000000 30.298037 28.405699 0.918370 # 1 
41 1 21 0.000000 31.987226 30.370111 32.312485 # 6 
42 1 10 0.000000 32.548027 30.214008 1.365227 # 18 
43 1 17 0.000000 0.373573 30.649466 1.068381 # 24 
44 1 24 0.000000 32.159195 27.555012 32.738529 # 9 
45 1 18 0.000000 32.719410 28.454329 32.599072 # 3 
46 1 19 0.000000 0.032403 28.474794 31.084644 # 4 
47 1 1 0.000000 0.645449 28.338226 0.252960 # 1 
48 1 21 0.000000 32.306957 29.101288 30.508642 # 6 
49 1 3 0.000000 32.698990 27.207907 30.597679 # 11 
50 1 23 0.000000 0.500361 26.631271 30.836040 # 8 
51 1 24 0.000000 2.214351 28.059496 30.877079 # 9 
52 1 18 0.000000 1.503236 28.832333 30.680662 # 3 
53 1 19 0.000000 1.683131 29.204981 29.222340 # 4 
54 1 1 0.000000 1.770963 29.721626 31.281111 # 1 
55 1 21 0.000000 1.575927 28.306543 28.589092 # 6 
56 1 3 0.000000 0.753278 30.208269 28.940468 # 11 
57 1 23 0.000000 0.815759 30.935349 29.572504 # 8 
58 1 24 0.000000 3.734602 29.085182 29.529282 # 9 
59 1 18 0.000000 3.070661 29.844732 29.196669 # 3 
60 1 19 0.000000 3.402402 30.335173 27.790930 # 4 
61 1 1 0.000000 3.229837 30.548946 29.988358 # 1 
62 1 21 0.000000 2.641377 31.040712 27.396526 # 6 
63 1 3 0.000000 3.169556 29.220785 26.920668 # 11 
64 1 23 0.000000 2.986801 29.572189 26.053005 # 8 
65 1 24 0.000000 5.541732 30.097815 27.627501 # 9 
66 1 18 0.000000 4.799781 30.903135 27.738338 # 3 
67 1 19 0.000000 4.946256 31.892403 26.537855 # 4 
68 1 1 0.000000 4.951088 31.429972 28.674444 # 1 
69 1 21 0.000000 4.339724 31.516457 25.631187 # 6 
70 1 10 0.000000 4.536607 0.233026 26.970926 # 18 
71 1 17 0.000000 3.790039 0.373785 26.398094 # 24 
72 1 24 0.000000 6.655351 30.875973 25.808382 # 9 
73 1 18 0.000000 6.456504 31.804541 26.279997 # 3 
74 1 19 0.000000 7.015719 32.805916 25.308668 # 4 
75 1 1 0.000000 6.958782 31.986319 27.261147 # 1 
76 1 21 0.000000 6.978425 0.842799 25.741388 # 6 
77 1 3 0.000000 6.152562 32.875114 24.212465 # 11 
78 1 23 0.000000 5.331964 0.363154 24.430870 # 8 
79 1 24 0.000000 8.324473 32.279549 23.700993 # 9 
80 1 18 0.000000 8.401148 32.404568 24.800495 # 3 
81 1 19 0.000000 9.541088 0.412191 25.339668 # 4 
82 1 1 0.000000 8.754421 31.418142 25.218781 # 1 
83 1 21 0.000000 9.499665 0.421741 26.450768 # 6 
84 1 10 0.000000 9.271911 1.735794 24.906414 # 18 
85 1 17 0.000000 8.806648 1.739232 24.067137 # 24 
86 1 24 0.000000 11.067848 0.021486 23.773594 # 9 
87 1 18 0.000000 10.978614 0.052329 24.881556 # 3 
88 1 19 0.000000 11.919794 1.000816 25.627701 # 4 
89 1 1 0.000000 11.102766 31.946636 25.284834 # 1 
90 1 21 0.000000 11.390416 1.641303 26.379330 # 6 
91 1 3 0.000000 12.496755 1.866181 24.733175 # 11 
92 1 23 0.000000 11.878248 2.616277 24.584757 # 8 
93 1 24 0.000000 13.837562 1.026069 26.311390 # 9 
94 1 18 0.000000 13.077221 0.277844 26.280968 # 3 
95 1 19 0.000000 12.835238 32.608040 27.654951 # 4 
96 1 1 0.000000 13.407629 32.411343 25.563513 # 1 
97 1 21 0.000000 12.106105 0.259124 28.231890 # 6 
98 1 3 0.000000 12.356004 31.295574 27.382542 # 11 
99 1 23 0.000000 11.368153 31.336922 27.471859 # 8 
100 1 24 0.000000 14.920974 0.332813 27.988787 # 9 
101 1 18 0.000000 14.197671 32.445435 28.357063 # 3 
102 1 19 0.000000 14.125703 32.332916 29.863764 # 4 
103 1 1 0.000000 14.529793 31.465958 27.977932 # 1 
104 1 21 0.000000 13.317699 31.626020 30.177336 # 6 
105 1 3 0.000000 13.719000 0.592672 30.464146 # 11 
106 1 23 0.000000 13.531094 0.312424 31.379631 # 8 
107 1 24 0.000000 15.488235 32.206520 31.540752 # 9 
108 1 18 0.000000 15.421449 31.949163 30.437845 # 3 
109 1 19 0.000000 15.597262 30.435022 30.324135 # 4 
110 1 1 0.000000 16.282099 32.483025 30.047934 # 1 
111 1 21 0.000000 14.931993 29.959623 29.619585 # 6 
112 1 10 0.000000 16.915951 30.235588 29.857462 # 18 
113 1 17 0.000000 16.957764 29.394304 29.416126 # 24 
114 1 24 0.000000 15.476186 28.756449 31.620129 # 9 
115 1 18 0.000000 15.477741 29.822073 31.723139 # 3 
116 1 19 0.000000 16.669571 29.987656 32.572182 # 4 
117 1 1 0.000000 14.512908 29.993488 32.171654 # 1 
118 1 21 0.000000 17.208260 30.981647 32.570980 # 6 
119 1 10 0.000000 17.598965 28.929224 32.250103 # 18 
120 1 17 0.000000 18.387621 29.077402 32.841187 # 24 
121 1 24 0.000000 17.105774 29.762362 1.773768 # 9 
122 1 18 0.000000 16.207813 29.885210 1.093041 # 3 
123 1 19 0.000000 15.514270 31.176737 1.523456 # 4 
124 1 1 0.000000 15.658980 28.940479 1.248445 # 1 
125 1 21 0.000000 15.212929 31.736279 0.610362 # 6 
126 1 3 0.000000 16.471699 32.012363 2.159783 # 11 
127 1 23 0.000000 17.174265 32.186668 1.524607 # 8 
128 1 24 0.000000 14.381959 30.143827 3.172538 # 9 
129 1 18 0.000000 14.243679 30.852713 2.296000 # 3 
130 1 19 0.000000 13.622485 32.138687 2.826698 # 4 
131 1 1 0.000000 13.511816 30.319040 1.727623 # 1 
132 1 21 0.000000 13.766046 32.938366 2.084656 # 6 
133 1 3 0.000000 14.248052 32.554459 4.031382 # 11 
134 1 23 0.000000 14.892071 0.287166 3.846729 # 8 
135 1 24 0.000000 11.694471 32.320354 3.988513 # 9 
136 1 18 0.000000 12.079630 31.989378 3.013677 # 3 
137 1 19 0.000000 11.086454 32.369389 1.878026 # 4 
138 1 1 0.000000 11.957854 30.897482 3.146865 # 1 
139 1 21 0.000000 10.319265 31.566994 1.922585 # 6 
140 1 3 0.000000 11.736602 32.195751 0.620541 # 11 
141 1 23 0.000000 11.713800 31.257145 0.437149 # 8 
142 1 24 0.000000 10.996167 1.578347 2.512082 # 9 
143 1 18 0.000000 10.444483 0.793864 1.940868 # 3 
144 1 19 0.000000 10.169628 1.347768 0.515494 # 4 
145 1 1 0.000000 9.489765 0.634810 2.516223 # 1 
146 1 21 0.000000 9.823702 0.527952 32.767174 # 6 
147 1 3 0.000000 11.380610 1.982810 0.001300 # 11 
148 1 23 0.000000 11.476272 1.740147 32.016319 # 8 
149 1 24 0.000000 9.156339 2.943999 32.666348 # 9 
150 1 18 0.000000 9.061212 2.409993 0.672847 # 3 
151 1 19 0.000000 7.661176 2.040534 1.104296 # 4 
152 1 1 0.000000 9.368740 3.180301 1.354934 # 1 
153 1 21 0.000000 7.577116 2.242618 2.193216 # 6 
154 1 3 0.000000 7.376418 0.689504 0.815511 # 11 
155 1 23 0.000000 7.565322 0.571874 32.859673 # 8 
156 1 24 0.000000 6.758489 2.680675 32.104492 # 9 
157 1 18 0.000000 6.712265 2.885285 0.250901 # 3 
158 1 19 0.000000 5.269330 2.622736 0.580289 # 4 
159 1 1 0.000000 6.931018 3.937166 0.449953 # 1 
160 1 21 0.000000 5.159595 2.325665 1.611740 # 6 
161 1 3 0.000000 4.894932 1.474349 32.800140 # 11 
162 1 23 0.000000 4.514009 0.856294 0.493360 # 8 
163 1 24 0.000000 3.480342 3.403946 32.454041 # 9 
164 1 18 0.000000 4.286746 3.742349 0.142110 # 3 
165 1 19 0.000000 3.700580 4.493313 1.395819 # 4 
166 1 1 0.000000 4.738278 4.486717 32.434692 # 1 
167 1 21 0.000000 4.502278 5.017972 1.858415 # 6 
168 1 3 0.000000 3.119235 3.508809 2.176271 # 11 
169 1 23 0.000000 2.226016 3.741788 2.156302 # 8 
170 1 24 0.000000 1.968074 5.186220 0.225731 # 9 
171 1 18 0.000000 2.831585 5.587305 0.847407 # 3 
172 1 19 0.000000 2.390798 6.626704 1.849614 # 4 
173 1 1 0.000000 3.455984 6.286937 0.275145 # 1 
174 1 21 0.000000 3.283530 6.691000 2.561873 # 6 
175 1 3 0.000000 1.195165 6.230628 2.526563 # 11 
176 1 23 0.000000 1.449264 6.281606 3.454778 # 8 
177 1 24 0.000000 1.627706 8.089321 0.244270 # 9 
178 1 18 0.000000 2.248326 8.044523 1.226260 # 3 
179 1 19 0.000000 1.585937 8.895294 2.325390 # 4 
180 1 1 0.000000 3.186532 8.428392 0.978753 # 1 
181 1 21 0.000000 1.535120 8.562783 3.362927 # 6 
182 1 3 0.000000 0.178638 8.900397 2.011623 # 11 
183 1 23 0.000000 32.779865 9.107950 2.837435 # 8 
184 1 24 0.000000 1.242568 11.022717 2.662957 # 9 
185 1 18 0.000000 2.034448 10.357173 2.221514 # 3 
186 1 19 0.000000 3.385811 10.694696 2.872454 # 4 
187 1 1 0.000000 2.081882 10.616069 1.116593 # 1 
188 1 21 0.000000 3.399389 9.881503 3.655177 # 6 
189 1 3 0.000000 3.317068 11.898517 3.557602 # 11 
190 1 23 0.000000 4.282201 12.125681 3.704140 # 8 
191 1 24 0.000000 4.739744 11.571494 1.586684 # 9 
192 1 18 0.000000 4.570110 10.550835 1.964240 # 3 
193 1 19 0.000000 5.667205 10.016601 2.856477 # 4 
194 1 1 0.000000 4.488155 9.873693 1.009341 # 1 
195 1 21 0.000000 5.521088 10.495405 3.835234 # 6 
196 1 3 0.000000 5.586782 8.628580 2.998202 # 11 
197 1 23 0.000000 5.529491 8.416733 3.946076 # 8 
198 1 24 0.000000 7.037999 11.035583 1.774625 # 9 
199 1 18 0.000000 7.073148 10.215158 2.387007 # 3 
200 1 19 0.000000 7.972064 10.695961 3.526452 # 4 
201 1 1 0.000000 7.463213 9.413377 1.778318 # 1 
202 1 21 0.000000 7.411945 11.234214 4.359119 # 6 
203 1 3 0.000000 8.799506 11.613648 2.880799 # 11 
204 1 23 0.000000 8.415358 12.487283 3.056412 # 8 
205 1 24 0.000000 9.836344 9.747334 3.600259 # 9 
206 1 18 0.000000 8.847569 9.611171 4.106847 # 3 
207 1 19 0.000000 9.004870 9.570922 5.645024 # 4 
208 1 1 0.000000 8.532199 8.545053 3.753786 # 1 
209 1 21 0.000000 9.820744 8.833171 5.830400 # 6 
210 1 3 0.000000 9.395077 10.852085 6.050179 # 11 
211 1 23 0.000000 9.576933 11.423534 5.333229 # 8 
212 1 24 0.000000 7.997851 8.146754 6.919594 # 9 
213 1 18 0.000000 7.777342 9.061149 6.338673 # 3 
214 1 19 0.000000 7.190606 10.102944 7.260618 # 4 
215 1 1 0.000000 7.073592 8.849655 5.537006 # 1 
216 1 21 0.000000 7.120197 10.984267 6.652118 # 6 
217 1 3 0.000000 8.101638 10.340539 8.353010 # 11 
218 1 23 0.000000 7.832480 11.112737 8.878758 # 8 
219 1 24 0.000000 5.796916 9.647616 8.773267 # 9 
220 1 18 0.000000 5.809150 9.648415 7.769174 # 3 
221 1 19 0.000000 4.749039 10.547817 7.210964 # 4 
222 1 1 0.000000 5.554009 8.615442 7.357957 # 1 
223 1 21 0.000000 4.641265 10.202255 6.202872 # 6 
224 1 3 0.000000 4.899258 11.943354 7.284492 # 11 
225 1 23 0.000000 5.162357 12.085063 8.213812 # 8 
226 1 24 0.000000 3.459976 10.129635 8.952608 # 9 
227 1 18 0.000000 3.433430 10.158577 7.861092 # 3 
228 1 19 0.000000 2.265286 11.017083 7.481045 # 4 
229 1 1 0.000000 3.210909 9.134790 7.599277 # 1 
230 1 21 0.000000 2.500139 11.654722 6.568552 # 6 
231 1 3 0.000000 1.937364 11.781058 8.624301 # 11 
232 1 23 0.000000 2.100614 12.676937 8.400881 # 8 
233 1 24 0.000000 0.856820 9.751883 8.247861 # 9 
234 1 18 0.000000 1.005806 10.142764 7.245815 # 3 
235 1 19 0.000000 32.950603 11.019306 6.555792 # 4 
236 1 1 0.000000 1.286289 9.304330 6.512098 # 1 
237 1 21 0.000000 0.255101 12.049819 6.464031 # 6 
238 1 3 0.000000 32.774483 10.570320 5.250029 # 11 
239 1 23 0.000000 0.676316 10.552937 4.783414 # 8 
240 1 24 0.000000 31.954626 11.373762 8.299565 # 9 
241 1 18 0.000000 31.667734 10.942899 7.305314 # 3 
242 1 19 0.000000 30.525198 11.674404 6.779240 # 4 
243 1 1 0.000000 31.464466 9.813377 7.452849 # 1 
244 1 21 0.000000 30.434286 11.594017 5.698001 # 6 
245 1 3 0.000000 30.673933 13.050129 7.281027 # 11 
246 1 23 0.000000 30.612169 13.661591 6.599408 # 8 
247 1 24 0.000000 28.644079 12.139596 7.690535 # 9 
248 1 18 0.000000 29.146395 11.222275 7.268149 # 3 
249 1 19 0.000000 28.122324 10.817297 6.202707 # 4 
250 1 1 0.000000 29.294363 10.494953 8.043859 # 1 
251 1 21 0.000000 28.466209 9.962099 5.644120 # 6 
252 1 3 0.000000 27.817940 11.923353 5.388952 # 11 
253 1 23 0.000000 27.540180 11.594468 4.514972 # 8 
254 1 24 0.000000 25.931221 10.711861 6.291207 # 9 
255 1 18 0.000000 26.846521 10.393674 6.863391 # 3 
256 1 19 0.000000 26.644152 8.915401 6.860889 # 4 
257 1 1 0.000000 26.581825 10.860343 7.839764 # 1 
258 1 21 0.000000 27.552364 8.338090 6.928689 # 6 
259 1 10 0.000000 25.824873 8.719292 5.722178 # 18 
260 1 17 0.000000 26.376740 8.598105 4.948530 # 24 
261 1 24 0.000000 25.353613 7.456491 7.661518 # 9 
262 1 18 0.000000 25.751369 8.428900 8.018681 # 3 
263 1 19 0.000000 26.477484 8.229503 9.299521 # 4 
264 1 1 0.000000 24.910181 9.103730 8.175873 # 1 
265 1 21 0.000000 27.631414 8.597465 9.191614 # 6 
266 1 3 0.000000 25.883785 8.967062 10.348027 # 11 
267 1 23 0.000000 26.508785 9.312050 10.932893 # 8 
268 1 24 0.000000 25.471228 6.356819 9.511125 # 9 
269 1 18 0.000000 26.527702 6.777928 9.670784 # 3 
270 1 19 0.000000 27.628284 5.999264 8.993218 # 4 
271 1 1 0.000000 26.727350 6.739836 10.782340 # 1 
272 1 21 0.000000 28.372185 6.687719 8.654162 # 6 
273 1 10 0.000000 27.009949 5.359570 7.955760 # 18 
274 1 17 0.000000 27.702705 5.011538 7.409953 # 24 
275 1 24 0.000000 27.977633 3.979512 9.425724 # 9 
276 1 18 0.000000 28.236879 4.935731 9.844488 # 3 
277 1 19 0.000000 29.761078 5.096812 10.033710 # 4 
278 1 1 0.000000 27.814531 4.952604 10.834991 # 1 
279 1 21 0.000000 30.184633 5.494110 9.143818 # 6 
280 1 3 0.000000 30.313381 3.815378 10.420156 # 11 
281 1 23 0.000000 30.668734 3.434589 9.573409 # 8 
282 1 24 0.000000 30.455456 5.428584 12.081960 # 9 
283 1 18 0.000000 30.058851 6.009278 11.219867 # 3 
284 1 19 0.000000 30.911469 7.130871 10.769207 # 4 
285 1 1 0.000000 29.126532 6.477518 11.725028 # 1 
286 1 21 0.000000 30.625154 7.467967 9.695908 # 6 
287 1 3 0.000000 32.279541 6.765183 10.799017 # 11 
288 1 23 0.000000 32.517052 6.386681 9.915383 # 8 
289 1 24 0.000000 31.642881 8.244784 12.260178 # 9 
290 1 18 0.000000 30.694700 8.351140 11.700204 # 3 
291 1 19 0.000000 30.594189 9.686664 10.926155 # 4 
292 1 1 0.000000 29.903624 8.374516 12.405941 # 1 
293 1 21 0.000000 31.203537 9.589450 10.046926 # 6 
294 1 3 0.000000 29.233019 9.942990 10.607203 # 11 
295 1 23 0.000000 29.043983 10.847343 10.824157 # 8 
296 1 24 0.000000 31.734367 10.168851 12.647280 # 9 
297 1 18 0.000000 31.069344 10.716473 11.948657 # 3 
298 1 19 0.000000 31.862453 11.963330 11.511618 # 4 
299 1 1 0.000000 30.133268 10.957855 12.537730 # 1 
300 1 21 0.000000 31.172001 12.614000 10.854210 # 6 
301 1 3 0.000000 32.883293 11.508023 10.576975 # 11 
302 1 23 0.000000 0.521179 10.800859 10.921629 # 8 
303 1 24 0.000000 0.036407 12.181613 13.323160 # 9 
304 1 18 0.000000 32.310123 12.796654 12.738742 # 3 
305 1 19 0.000000 0.184622 14.059175 12.468178 # 4 
306 1 1 0.000000 31.427164 12.928746 13.357771 # 1 
307 1 21 0.000000 32.831024 14.658101 11.659267 # 6 
308 1 3 0.000000 0.050447 14.979094 13.517838 # 11 
309 1 23 0.000000 32.613518 14.538597 14.309708 # 8 
310 1 24 0.000000 1.728098 12.708048 11.799185 # 9 
311 1 18 0.000000 1.629745 13.654127 12.344316 # 3 
312 1 19 0.000000 2.616332 14.611783 11.591322 # 4 
313 1 1 0.000000 2.054559 13.398861 13.329021 # 1 
314 1 21 0.000000 2.683197 15.568069 12.137054 # 6 
315 1 3 0.000000 2.145326 14.807020 10.311864 # 11 
316 1 23 0.000000 1.494106 15.601674 10.304301 # 8 
317 1 24 0.000000 4.259556 14.030414 10.137563 # 9 
318 1 18 0.000000 4.046224 13.989301 11.289536 # 3 
319 1 19 0.000000 5.168993 14.654130 11.949545 # 4 
320 1 1 0.000000 3.963700 12.946456 11.495860 # 1 
321 1 21 0.000000 5.329654 15.592088 11.359698 # 6 
322 1 3 0.000000 4.883264 15.051219 13.230075 # 11 
323 1 23 0.000000 5.631686 15.477376 13.546392 # 8 
324 1 24 0.000000 6.220076 12.776366 11.682595 # 9 
325 1 18 0.000000 6.411415 13.774810 12.125646 # 3 
326 1 19 0.000000 7.555410 14.517504 11.497793 # 4 
327 1 1 0.000000 6.635579 13.599790 13.198701 # 1 
328 1 21 0.000000 8.454408 14.270421 12.085378 # 6 
329 1 3 0.000000 7.603677 15.957363 11.607209 # 11 
330 1 23 0.000000 8.479540 16.298262 11.444777 # 8 
331 1 24 0.000000 7.348348 14.978673 9.340195 # 9 
332 1 18 0.000000 7.664995 14.169142 10.003758 # 3 
333 1 19 0.000000 9.124953 13.831115 9.556599 # 4 
334 1 1 0.000000 7.083681 13.226375 9.683819 # 1 
335 1 21 0.000000 9.730852 14.616022 9.868091 # 6 
336 1 3 0.000000 9.107498 13.656700 8.127614 # 11 
337 1 23 0.000000 9.600917 14.480897 7.971266 # 8 
338 1 24 0.000000 9.870728 11.829510 9.618541 # 9 
339 1 18 0.000000 9.748752 12.675052 10.338579 # 3 
340 1 19 0.000000 11.100531 12.911904 10.954252 # 4 
341 1 1 0.000000 8.917282 12.277244 11.032236 # 1 
342 1 21 0.000000 11.079249 13.790152 11.616563 # 6 
343 1 3 0.000000 11.986192 13.092479 9.839004 # 11 
344 1 23 0.000000 12.504007 13.864811 9.982324 # 8 
345 1 24 0.000000 12.619257 11.650105 11.734210 # 9 
346 1 18 0.000000 11.520952 11.685102 11.716177 # 3 
347 1 19 0.000000 10.977322 11.589252 13.150737 # 4 
348 1 1 0.000000 11.250172 10.780870 11.128090 # 1 
349 1 21 0.000000 10.606589 10.528933 13.274508 # 6 
350 1 3 0.000000 9.922082 12.484797 13.393109 # 11 
351 1 23 0.000000 9.203294 12.011197 13.861200 # 8 
352 1 24 0.000000 12.121933 12.922759 14.310084 # 9 
353 1 18 0.000000 12.150270 11.828112 14.170241 # 3 
354 1 19 0.000000 11.879871 10.911317 15.370047 # 4 
355 1 1 0.000000 13.075453 11.623525 13.668034 # 1 
356 1 21 0.000000 10.767949 10.981498 15.581418 # 6 
357 1 3 0.000000 12.457115 11.544155 16.484207 # 11 
358 1 23 0.000000 13.131982 12.044657 16.110838 # 8 
359 1 24 0.000000 13.458638 9.449324 15.179111 # 9 
360 1 18 0.000000 12.368537 9.429708 15.128534 # 3 
361 1 19 0.000000 11.938447 8.506886 16.187899 # 4 
362 1 1 0.000000 12.050106 8.908368 14.111430 # 1 
363 1 21 0.000000 10.839568 8.767578 16.397867 # 6 
364 1 3 0.000000 12.717579 8.583475 17.361567 # 11 
365 1 23 0.000000 12.261887 9.085648 18.033432 # 8 
366 1 24 0.000000 13.079861 6.909741 15.263954 # 9 
367 1 18 0.000000 12.045285 7.024351 15.683420 # 3 
368 1 19 0.000000 11.726616 6.005345 16.807096 # 4 
369 1 1 0.000000 11.444474 6.853982 14.775355 # 1 
370 1 21 0.000000 10.903189 6.404273 17.474707 # 6 
371 1 3 0.000000 12.960839 5.801646 17.568966 # 11 
372 1 23 0.000000 13.542621 5.260773 17.046329 # 8 
373 1 24 0.000000 11.857890 4.244129 15.516442 # 9 
374 1 18 0.000000 11.181649 4.613136 16.292887 # 3 
375 1 19 0.000000 11.031258 3.670797 17.520987 # 4 
376 1 1 0.000000 10.174449 4.754127 15.775373 # 1 
377 1 21 0.000000 11.757820 3.901305 18.250412 # 6 
378 1 3 0.000000 11.240590 2.270421 17.142227 # 11 
379 1 23 0.000000 11.365532 2.308855 16.206001 # 8 
380 1 24 0.000000 8.870351 3.229217 17.725309 # 9 
381 1 18 0.000000 9.701050 3.749629 18.263880 # 3 
382 1 19 0.000000 9.846955 3.101788 19.671394 # 4 
383 1 1 0.000000 9.348162 4.805018 18.287027 # 1 
384 1 21 0.000000 10.898537 3.120602 20.093098 # 6 
385 1 3 0.000000 9.344705 1.755457 19.542391 # 11 
386 1 23 0.000000 9.937152 1.182118 20.000355 # 8 
387 1 24 0.000000 8.249896 3.056506 21.063652 # 9 
388 1 18 0.000000 8.934340 3.797971 20.666353 # 3 
389 1 19 0.000000 9.778291 4.531307 21.705061 # 4 
390 1 1 0.000000 8.333945 4.368411 20.107464 # 1 
391 1 21 0.000000 10.526092 3.853879 22.168760 # 6 
392 1 3 0.000000 10.521142 5.565889 21.020290 # 11 
393 1 23 0.000000 9.985745 6.344975 20.988508 # 8 
394 1 24 0.000000 8.292336 4.208735 23.298973 # 9 
395 1 18 0.000000 8.799577 5.038767 22.747116 # 3 
396 1 19 0.000000 9.452801 6.117798 23.670778 # 4 
397 1 1 0.000000 8.058384 5.576517 22.133198 # 1 
398 1 21 0.000000 9.808006 6.963611 23.021004 # 6 
399 1 3 0.000000 10.578052 5.631234 24.368435 # 11 
400 1 23 0.000000 10.515952 4.638786 24.450802 # 8 
401 1 24 0.000000 8.722886 6.227281 25.729057 # 9 
402 1 18 0.000000 8.435425 6.564514 24.753828 # 3 
403 1 19 0.000000 8.523878 8.094672 24.679853 # 4 
404 1 1 0.000000 7.465633 6.154939 24.548912 # 1 
405 1 21 0.000000 8.324210 8.385244 23.638781 # 6 
406 1 3 0.000000 9.756797 8.596326 25.108438 # 11 
407 1 23 0.000000 9.948377 9.411774 24.570189 # 8 
408 1 24 0.000000 8.148482 8.833010 26.585894 # 9 
409 1 18 0.000000 7.541526 8.676713 25.660051 # 3 
410 1 19 0.000000 6.952980 10.010024 25.325102 # 4 
411 1 1 0.000000 6.769847 7.883807 25.637337 # 1 
412 1 21 0.000000 6.521028 9.957664 24.331247 # 6 
413 1 3 0.000000 7.933100 11.055588 25.452967 # 11 
414 1 23 0.000000 8.080659 11.341882 24.553061 # 8 
415 1 24 0.000000 6.228420 10.431192 27.331314 # 9 
416 1 18 0.000000 5.828711 10.311703 26.348585 # 3 
417 1 19 0.000000 5.010410 11.479521 25.774622 # 4 
418 1 1 0.000000 5.122462 9.442280 26.407181 # 1 
419 1 21 0.000000 5.532197 11.945841 24.899569 # 6 
420 1 3 0.000000 3.730945 10.969959 25.296160 # 11 
421 1 23 0.000000 3.404119 11.743886 24.843897 # 8 
422 1 24 0.000000 4.662652 12.130222 27.808201 # 9 
423 1 18 0.000000 4.712314 12.558965 26.796947 # 3 
424 1 19 0.000000 5.591339 13.810694 26.687941 # 4 
425 1 1 0.000000 3.646424 12.914933 26.618587 # 1 
426 1 21 0.000000 6.587724 13.484076 26.498314 # 6 
427 1 3 0.000000 5.533832 14.444707 27.911097 # 11 
428 1 23 0.000000 4.795251 15.057882 27.886267 # 8 
429 1 24 0.000000 4.199547 15.289458 25.797258 # 9 
430 1 18 0.000000 5.114228 14.770295 25.581158 # 3 
431 1 19 0.000000 6.192839 15.826241 25.340765 # 4 
432 1 1 0.000000 4.821384 14.272000 24.593447 # 1 
433 1 21 0.000000 7.048186 15.261734 25.607420 # 6 
434 1 10 0.000000 5.973248 16.904188 26.179373 # 18 
435 1 17 0.000000 6.699419 16.853867 26.808348 # 24 
436 1 24 0.000000 6.128716 17.429283 24.004381 # 9 
437 1 18 0.000000 6.127054 16.337379 23.925751 # 3 
438 1 19 0.000000 7.181032 15.938632 22.932556 # 4 
439 1 1 0.000000 5.102010 16.223562 23.569954 # 1 
440 1 21 0.000000 8.122361 16.052023 23.411705 # 6 
441 1 3 0.000000 7.249009 16.806845 21.851124 # 11 
442 1 23 0.000000 6.349410 17.170305 21.673494 # 8 
443 1 24 0.000000 5.929008 14.511757 22.108330 # 9 
444 1 18 0.000000 6.945099 14.514506 22.440178 # 3 
445 1 19 0.000000 8.062457 14.084924 21.515764 # 4 
446 1 1 0.000000 6.872934 13.783610 23.314480 # 1 
447 1 21 0.000000 8.600777 15.018564 21.235022 # 6 
448 1 3 0.000000 7.411293 13.360996 20.436098 # 11 
449 1 23 0.000000 7.077411 12.544751 20.764641 # 8 
450 1 24 0.000000 8.512901 12.289068 22.603006 # 9 
451 1 18 0.000000 9.014249 13.208629 22.281473 # 3 
452 1 19 0.000000 10.294940 12.731242 21.584139 # 4 
453 1 1 0.000000 9.348570 13.651093 23.221811 # 1 
454 1 21 0.000000 9.995661 12.687482 20.498695 # 6 
455 1 3 0.000000 10.656240 11.506244 22.127344 # 11 
456 1 23 0.000000 10.428108 10.858953 21.496172 # 8 
457 1 24 0.000000 12.327219 13.133656 22.135376 # 9 
458 1 18 0.000000 11.384405 13.698818 21.849226 # 3 
459 1 19 0.000000 11.591283 14.771379 20.821907 # 4 
460 1 1 0.000000 11.191443 14.368834 22.693262 # 1 
461 1 21 0.000000 10.626071 15.100004 20.484640 # 6 
462 1 3 0.000000 12.210614 15.837430 21.450510 # 11 
463 1 23 0.000000 11.559735 16.357878 21.871006 # 8 
464 1 24 0.000000 12.243712 13.090641 19.640009 # 9 
465 1 18 0.000000 12.311332 14.226935 19.572025 # 3 
466 1 19 0.000000 11.717061 14.702330 18.236546 # 4 
467 1 1 0.000000 13.355874 14.487757 19.592253 # 1 
468 1 21 0.000000 11.029403 15.556251 18.421787 # 6 
469 1 3 0.000000 10.969068 13.607647 17.672737 # 11 
470 1 23 0.000000 10.223827 13.980898 17.198851 # 8 
471 1 24 0.000000 13.113096 14.110311 16.773943 # 9 
472 1 18 0.000000 12.762247 15.068250 17.177475 # 3 
473 1 19 0.000000 12.317697 16.257137 16.302307 # 4 
474 1 1 0.000000 13.650096 15.321928 17.729073 # 1 
475 1 21 0.000000 11.241419 16.142775 16.183790 # 6 
476 1 10 0.000000 12.693002 17.434568 17.039860 # 18 
477 1 17 0.000000 11.957543 18.134928 17.093048 # 24 
478 1 24 0.000000 13.305442 15.407907 14.648127 # 9 
479 1 18 0.000000 12.999371 16.306885 14.934287 # 3 
480 1 19 0.000000 12.094315 16.934298 13.894908 # 4 
481 1 1 0.000000 13.788054 17.061977 15.053929 # 1 
482 1 21 0.000000 11.419342 17.636414 14.454202 # 6 
483 1 3 0.000000 11.203379 15.991519 13.373493 # 11 
484 1 23 0.000000 10.383570 16.313265 13.725745 # 8 
485 1 24 0.000000 12.780114 16.685026 11.823641 # 9 
486 1 18 0.000000 12.765669 17.442429 12.614586 # 3 
487 1 19 0.000000 12.062909 18.730051 12.106565 # 4 
488 1 1 0.000000 13.827179 17.719786 12.675508 # 1 
489 1 21 0.000000 11.435599 19.148283 12.875674 # 6 
490 1 3 0.000000 13.035526 19.655756 11.677095 # 11 
491 1 23 0.000000 12.915252 20.398705 12.173311 # 8 
492 1 24 0.000000 10.661350 17.467693 11.026025 # 9 
493 1 18 0.000000 11.197929 18.491383 10.902222 # 3 
494 1 19 0.000000 10.166642 19.623505 10.583175 # 4 
495 1 1 0.000000 11.862683 18.416590 10.043511 # 1 
496 1 21 0.000000 10.517044 20.676329 10.666524 # 6 
497 1 3 0.000000 9.159803 19.457607 11.568028 # 11 
498 1 23 0.000000 8.917699 18.553577 11.421370 # 8 
499 1 24 0.000000 8.642931 20.317791 9.295004 # 9 
500 1 18 0.000000 9.399179 19.449228 9.248881 # 3 
501 1 19 0.000000 10.202331 19.539825 7.953321 # 4 
502 1 1 0.000000 8.768918 18.517862 9.255014 # 1 
503 1 21 0.000000 10.955663 18.702248 7.807191 # 6 
504 1 3 0.000000 10.809542 20.774685 7.945114 # 11 
505 1 23 0.000000 11.525286 20.656965 7.331089 # 8 
506 1 24 0.000000 9.113650 20.614197 6.414629 # 9 
507 1 18 0.000000 9.198022 19.568453 6.785939 # 3 
508 1 19 0.000000 9.659266 18.630165 5.630704 # 4 
509 1 1 0.000000 8.161828 19.271780 6.997400 # 1 
510 1 21 0.000000 9.769329 17.540319 5.925865 # 6 
511 1 3 0.000000 10.915677 19.119419 5.199157 # 11 
512 1 23 0.000000 10.849606 20.054914 5.165677 # 8 
513 1 24 0.000000 8.956211 19.607740 3.919636 # 9 
514 1 18 0.000000 8.747754 18.620327 4.311913 # 3 
515 1 19 0.000000 9.025126 17.378038 3.433116 # 4 
516 1 1 0.000000 7.769622 18.705784 4.584567 # 1 
517 1 21 0.000000 9.954485 17.000793 3.803801 # 6 
518 1 3 0.000000 9.472173 17.877182 2.138305 # 11 
519 1 23 0.000000 10.010315 17.155910 1.757088 # 8 
520 1 24 0.000000 8.178725 15.845037 2.318841 # 9 
521 1 18 0.000000 7.873224 16.453579 3.187526 # 3 
522 1 19 0.000000 7.668562 15.636273 4.402161 # 4 