LAMMPS (23 Jun 2022 - Update 1)
OMP_NUM_THREADS environment is not set. Defaulting to 1 thread. (src/comm.cpp:98)
  using 1 OpenMP thread(s) per MPI task
Loaded 1 plugins from C:\Users\divy\AppData\Local\LAMMPS 64-bit 23Jun2022\plugins
package omp 0
using multi-threaded neighbor list subroutines
package omp 4
set 4 OpenMP thread(s) per MPI task
using multi-threaded neighbor list subroutines
# Initialization
units			real
dimension		3
processors		* * *
boundary		p p p
atom_style		full
pair_style		lj/cut 10.0
bond_style		harmonic
angle_style 	harmonic
read_data		no_link_minimize.data
Reading data file ...
  orthogonal box = (30.550832 28.973835 30.392336) to (59.833162 58.256165 59.674666)
  1 by 1 by 1 MPI processor grid
  reading atoms ...
  2808 atoms
  reading velocities ...
  2808 velocities
  scanning bonds ...
  3 = max bonds/atom
  scanning angles ...
  6 = max angles/atom
  reading bonds ...
  2804 bonds
  reading angles ...
  5200 angles
Finding 1-2 1-3 1-4 neighbors ...
  special bond factors lj:    0        0        0       
  special bond factors coul:  0        0        0       
     4 = max # of 1-2 neighbors
     7 = max # of 1-3 neighbors
    14 = max # of 1-4 neighbors
    18 = max # of special neighbors
  special bonds CPU = 0.002 seconds
  read_data CPU = 0.077 seconds

#output

# going from 100-170 in steps of 10

thermo			100
thermo_style	custom step temp vol density


# npt for 150ps

fix			1 all npt temp 373 373 1000 iso 1 1 100
run			150000
Generated 36 of 36 mixed pair_coeff terms from geometric mixing rule
Last active /omp style is angle_style harmonic/omp
Neighbor list info ...
  update every 1 steps, delay 10 steps, check yes
  max neighbors/atom: 2000, page size: 100000
  master list distance cutoff = 12
  ghost atom cutoff = 12
  binsize = 6, bins = 5 5 5
  1 neighbor lists, perpetual/occasional/extra = 1 0 0
  (1) pair lj/cut/omp, perpetual
      attributes: half, newton on, omp
      pair build: half/bin/newton/omp
      stencil: half/bin/3d
      bin: standard
Per MPI rank memory allocation (min/avg/max) = 25.31 | 25.31 | 25.31 Mbytes
   Step          Temp          Volume        Density    
         0   301.96869      25108.276      1.1659018    
       100   308.14532      25164.168      1.1633123    
       200   303.56663      24772.838      1.1816888    
       300   304.73046      25171.914      1.1629543    
       400   294.88873      25250.344      1.1593421    
       500   308.54733      25084.45       1.1670093    
       600   314.14711      25228.336      1.1603534    
       700   312.56057      25194.355      1.1619184    
       800   311.05189      25243.344      1.1596636    
       900   319.39095      25079.419      1.1672434    
      1000   317.84207      25220.79       1.1607006    
      1100   315.81627      25155.486      1.1637138    
      1200   318.17223      25205.63       1.1613987    
      1300   316.77659      25163.048      1.1633641    
      1400   327.49587      25223.988      1.1605534    
      1500   323.54697      25264.376      1.1586982    
      1600   323.88571      25251.753      1.1592774    
      1700   325.23325      25052.55       1.1684953    
      1800   332.33937      25136.513      1.1645922    
      1900   334.7916       25278.857      1.1580344    
      2000   325.86615      25036.219      1.1692575    
      2100   332.66511      25040.682      1.1690491    
      2200   338.331        24989.399      1.1714482    
      2300   340.25244      25154.401      1.163764     
      2400   336.11782      25240.923      1.1597748    
      2500   343.99744      25470.378      1.1493267    
      2600   345.10198      25418.726      1.1516622    
      2700   348.02023      25720.922      1.1381313    
      2800   351.86188      25365.655      1.1540718    
      2900   358.70358      25118.667      1.1654195    
      3000   341.43904      25158.398      1.1635791    
      3100   346.12071      25575.422      1.1446062    
      3200   351.53434      25453.843      1.1500733    
      3300   358.38566      25475.573      1.1490924    
      3400   354.44871      25598.31       1.1435828    
      3500   357.25121      25290.191      1.1575154    
      3600   358.28665      25391.573      1.1528938    
      3700   363.19843      25486.846      1.1485841    
      3800   366.66619      25643.411      1.1415715    
      3900   365.53348      25374.865      1.1536529    
      4000   362.97874      25622.536      1.1425015    
      4100   373.63937      25805.838      1.1343862    
      4200   369.10448      25795.309      1.1348492    
      4300   370.46574      25631.934      1.1420826    
      4400   370.42033      25672.694      1.1402694    
      4500   370.79892      25736.019      1.1374636    
      4600   372.95564      25919.058      1.1294309    
      4700   376.68934      25733.829      1.1375604    
      4800   383.40652      25823.609      1.1336055    
      4900   369.72022      25672.755      1.1402667    
      5000   377.23978      25713.324      1.1384676    
      5100   374.37394      25550.576      1.1457192    
      5200   378.56405      25604.821      1.143292     
      5300   387.68392      25639.134      1.1417619    
      5400   383.97133      25744.15       1.1371044    
      5500   386.16356      25800.798      1.1346078    
      5600   380.24209      25662.942      1.1407026    
      5700   385.23756      25771.273      1.1359076    
      5800   380.50499      26072.605      1.1227795    
      5900   388.21923      26044.704      1.1239823    
      6000   380.8832       26158.552      1.1190904    
      6100   379.82428      25770.215      1.1359543    
      6200   377.94998      25847.762      1.1325462    
      6300   385.94487      25441.155      1.1506469    
      6400   391.35635      25703.785      1.1388901    
      6500   375.71447      25744.029      1.1371098    
      6600   376.9539       26033.905      1.1244485    
      6700   376.28784      25661.699      1.1407579    
      6800   381.65837      25640.346      1.1417079    
      6900   381.73539      25443.921      1.1505218    
      7000   379.68839      25556.944      1.1454337    
      7100   377.77307      25658.115      1.1409172    
      7200   383.89866      25511.343      1.1474812    
      7300   365.10309      25977.072      1.1269086    
      7400   374.87942      25869.811      1.131581     
      7500   376.34938      25667.595      1.1404959    
      7600   376.91855      25794.848      1.1348695    
      7700   372.7882       25721.159      1.1381208    
      7800   370.26031      25763.73       1.1362402    
      7900   371.58486      25774.976      1.1357444    
      8000   374.91884      25418.356      1.151679     
      8100   372.71794      25612.733      1.1429388    
      8200   365.89403      25687.167      1.1396269    
      8300   376.0463       25783.377      1.1353744    
      8400   369.11124      25640.133      1.1417174    
      8500   368.30845      25580.145      1.1443948    
      8600   369.09494      25465.495      1.1495471    
      8700   369.38351      25605.508      1.1432613    
      8800   368.98998      25800.572      1.1346177    
      8900   366.00362      25539.067      1.1462355    
      9000   371.96409      25515.003      1.1473166    
      9100   369.6688       25593.174      1.1438123    
      9200   369.37806      25874.347      1.1313826    
      9300   366.30141      25470.335      1.1493287    
      9400   366.71637      25565.166      1.1450654    
      9500   362.47995      25734.277      1.1375406    
      9600   370.79337      25863.965      1.1318367    
      9700   372.60125      25911.381      1.1297656    
      9800   369.62593      25794.931      1.1348658    
      9900   365.48304      25718.437      1.1382413    
     10000   376.05649      25724.73       1.1379628    
     10100   365.59277      25736.666      1.1374351    
     10200   373.23802      25828.957      1.1333708    
     10300   367.53723      25834.568      1.1331246    
     10400   369.03328      25735.472      1.1374878    
     10500   368.92052      25686.879      1.1396397    
     10600   365.77181      25949.605      1.1281014    
     10700   374.88598      25780.734      1.1354908    
     10800   373.55509      25927.088      1.1290811    
     10900   371.13079      26124.088      1.1205668    
     11000   372.62074      25876.56       1.1312859    
     11100   371.78208      25975.376      1.1269822    
     11200   376.22216      25773.36       1.1358157    
     11300   378.69667      25831.448      1.1332615    
     11400   375.66642      25817.934      1.1338547    
     11500   372.4675       26190.593      1.1177214    
     11600   368.79349      25991.838      1.1262684    
     11700   374.54511      25990.172      1.1263406    
     11800   371.37198      26156.413      1.119182     
     11900   381.52612      26103.772      1.1214389    
     12000   374.24426      26044.456      1.123993     
     12100   379.98841      26351.853      1.1108815    
     12200   379.10845      26127.211      1.1204329    
     12300   377.46072      26278.147      1.1139973    
     12400   377.79841      26270.254      1.114332     
     12500   374.27095      26324.177      1.1120494    
     12600   373.21731      26068.395      1.1229608    
     12700   380.3281       26217.597      1.1165701    
     12800   373.26573      26060.492      1.1233014    
     12900   373.89471      26084.792      1.1222549    
     13000   375.97977      26036.753      1.1243255    
     13100   380.40002      26242.672      1.1155033    
     13200   380.68423      26114.596      1.1209741    
     13300   379.05257      26295.592      1.1132583    
     13400   378.9029       26133.944      1.1201442    
     13500   375.48104      25789.02       1.135126     
     13600   375.65292      25919.351      1.1294182    
     13700   371.16732      25688.1        1.1395855    
     13800   376.03302      25987.427      1.1264596    
     13900   373.46347      25862.948      1.1318812    
     14000   380.71976      25762.509      1.1362941    
     14100   372.62539      25897.766      1.1303595    
     14200   379.34678      25811.582      1.1341337    
     14300   373.37668      26034.911      1.1244051    
     14400   371.98169      26092.718      1.121914     
     14500   369.58175      25959.687      1.1276633    
     14600   374.35936      26072.726      1.1227743    
     14700   374.42027      26243.998      1.1154469    
     14800   369.73836      26341.278      1.1113275    
     14900   372.23318      26210.886      1.116856     
     15000   371.78246      26121.469      1.1206792    
     15100   374.1805       25794.105      1.1349022    
     15200   371.1171       25850.996      1.1324046    
     15300   373.38122      26276.674      1.1140598    
     15400   372.14404      26038.178      1.124264     
     15500   367.11346      25829.661      1.1333399    
     15600   371.27298      25689.769      1.1395115    
     15700   363.01353      25690.022      1.1395002    
     15800   375.76442      25790.655      1.135054     
     15900   370.42658      25847.562      1.132555     
     16000   369.49045      25909.359      1.1298537    
     16100   359.27047      26036.632      1.1243308    
     16200   368.29571      25886.122      1.130868     
     16300   362.63381      25990.633      1.1263206    
     16400   373.14767      26115.319      1.1209431    
     16500   370.21998      26338.535      1.1114432    
     16600   375.3219       26072.578      1.1227807    
     16700   369.72841      25888.505      1.1307639    
     16800   370.62526      26218.211      1.116544     
     16900   377.06586      26027.896      1.1247081    
     17000   371.94993      25931.361      1.1288951    
     17100   366.54972      25889.244      1.1307316    
     17200   369.44969      26221.33       1.1164112    
     17300   366.94349      26371.748      1.1100434    
     17400   374.09311      26465.73       1.1061016    
     17500   373.87135      26159.879      1.1190337    
     17600   374.45224      26198.717      1.1173748    
     17700   369.32522      25927.687      1.1290551    
     17800   367.33047      26101.07       1.121555     
     17900   379.91015      26193.605      1.1175928    
     18000   376.72745      25900.557      1.1302377    
     18100   377.59844      25976.947      1.126914     
     18200   369.44877      26145.405      1.1196532    
     18300   377.33995      26282.196      1.1138257    
     18400   369.00086      26163.761      1.1188677    
     18500   373.18236      25973.073      1.1270821    
     18600   381.31965      26120.5        1.1207207    
     18700   374.30768      25903.391      1.1301141    
     18800   373.56435      26021.951      1.1249651    
     18900   376.1075       25860.261      1.1319989    
     19000   382.44649      26105.006      1.1213859    
     19100   380.35298      26234.886      1.1158343    
     19200   376.5451       25945.285      1.1282892    
     19300   380.32248      25879.634      1.1311515    
     19400   376.30457      25746.955      1.1369805    
     19500   377.19274      25941.051      1.1284734    
     19600   381.19293      25748.029      1.1369331    
     19700   379.23029      25762.693      1.1362859    
     19800   372.6437       25888.081      1.1307824    
     19900   383.85287      25985.568      1.1265401    
     20000   367.33867      26150.056      1.119454     
     20100   373.50077      26072.327      1.1227915    
     20200   368.60848      26094.633      1.1218317    
     20300   371.47036      26130.119      1.1203082    
     20400   367.65347      26165.824      1.1187794    
     20500   367.18346      26222.322      1.1163689    
     20600   366.53388      26215.376      1.1166648    
     20700   370.61969      25911.868      1.1297443    
     20800   374.30979      26040.616      1.1241587    
     20900   370.04578      26050.075      1.1237506    
     21000   365.31352      26088.488      1.1220959    
     21100   367.77797      26215.704      1.1166508    
     21200   366.32998      26223.219      1.1163308    
     21300   375.89792      25900.476      1.1302412    
     21400   371.53534      26148.236      1.1195319    
     21500   370.55155      25986.586      1.126496     
     21600   371.79207      25761.709      1.1363293    
     21700   370.53859      25676.511      1.1400998    
     21800   372.01367      25870.855      1.1315353    
     21900   373.16294      25901.733      1.1301864    
     22000   370.22319      26023.036      1.1249182    
     22100   368.62252      25733.747      1.1375641    
     22200   366.52097      25739.769      1.1372979    
     22300   371.0201       25821.591      1.1336941    
     22400   374.114        25778.185      1.1356031    
     22500   370.75707      26063.356      1.1231779    
     22600   369.71481      25670.926      1.1403479    
     22700   369.34695      25987.857      1.1264409    
     22800   372.45315      26062.832      1.1232005    
     22900   370.3133       25922.661      1.129274     
     23000   364.21101      25995.799      1.1260968    
     23100   372.33972      25755.534      1.1366018    
     23200   375.15979      25797.728      1.1347428    
     23300   365.72919      26070.089      1.1228878    
     23400   380.79922      26235.719      1.1157989    
     23500   368.63944      26203.627      1.1171654    
     23600   367.59984      26142.641      1.1197715    
     23700   369.75384      26102.467      1.121495     
     23800   374.58555      25968.499      1.1272806    
     23900   376.00179      25779.507      1.1355448    
     24000   373.48564      25775.391      1.1357262    
     24100   374.08831      25986.045      1.1265195    
     24200   372.16536      25898.039      1.1303476    
     24300   377.34978      26008.169      1.1255612    
     24400   375.79567      26228.74       1.1160958    
     24500   365.91053      26118.861      1.1207911    
     24600   364.66359      26258.011      1.1148516    
     24700   374.22642      26256.916      1.1148981    
     24800   374.2585       26324.731      1.112026     
     24900   371.9781       26444.31       1.1069975    
     25000   366.70924      26482.049      1.10542      
     25100   371.07776      26118.844      1.1207918    
     25200   368.60012      26637.389      1.0989735    
     25300   377.41631      26440.479      1.1071579    
     25400   373.53602      26112.13       1.12108      
     25500   362.42296      25673.446      1.1402359    
     25600   376.6191       25740.413      1.1372695    
     25700   374.40738      25719.751      1.1381831    
     25800   380.00598      25907.14       1.1299505    
     25900   370.51062      26067.207      1.123012     
     26000   376.23416      25936.098      1.1286889    
     26100   378.93977      26042.362      1.1240834    
     26200   377.17276      25814.065      1.1340246    
     26300   374.91311      26115.177      1.1209492    
     26400   370.39384      26249.639      1.1152072    
     26500   381.40051      25869.949      1.131575     
     26600   376.05532      25969.703      1.1272284    
     26700   368.29321      25975.549      1.1269747    
     26800   374.83847      26151.065      1.1194108    
     26900   372.01996      26211.525      1.1168288    
     27000   379.42493      26195.851      1.117497     
     27100   374.28721      25916.467      1.1295439    
     27200   383.02938      25892.054      1.1306089    
     27300   374.69398      25975.167      1.1269913    
     27400   374.2617       26043.824      1.1240203    
     27500   372.80921      26075.384      1.1226598    
     27600   366.9522       26246.261      1.1153507    
     27700   370.83245      26093.597      1.1218762    
     27800   368.06408      25942.103      1.1284276    
     27900   378.61929      26251.257      1.1151385    
     28000   375.48698      26225.641      1.1162277    
     28100   364.8894       25889.008      1.1307419    
     28200   371.88966      25852.075      1.1323573    
     28300   363.49947      26021.542      1.1249827    
     28400   366.30703      26026.652      1.1247619    
     28500   363.08009      26125.111      1.1205229    
     28600   369.0999       26217.092      1.1165917    
     28700   363.58533      26248.349      1.115262     
     28800   371.41553      25922.62       1.1292757    
     28900   370.26272      26036.365      1.1243423    
     29000   371.83764      25728.689      1.1377877    
     29100   370.79695      25655.273      1.1410436    
     29200   366.95225      25647.307      1.141398     
     29300   373.01635      25678.276      1.1400215    
     29400   365.22186      25580.021      1.1444004    
     29500   371.44249      25853.789      1.1322822    
     29600   379.49474      25603.466      1.1433524    
     29700   368.43432      25666.977      1.1405233    
     29800   371.58337      25723.4        1.1380216    
     29900   371.74721      25538.604      1.1462563    
     30000   375.36045      25801.423      1.1345803    
     30100   373.38512      25776.885      1.1356603    
     30200   365.23235      26091.179      1.1219802    
     30300   378.61189      26030.202      1.1246085    
     30400   364.91417      25891.25       1.130644     
     30500   375.11904      25968.837      1.127266     
     30600   372.76934      25768.825      1.1360155    
     30700   373.80489      25973.418      1.1270671    
     30800   378.98298      25828.704      1.1333819    
     30900   383.08113      25615.573      1.1428121    
     31000   370.43737      25811.177      1.1341515    
     31100   373.52862      26045.883      1.1239314    
     31200   371.83104      26041.568      1.1241177    
     31300   368.5473       26136.748      1.1200241    
     31400   375.60086      26051.07       1.1237076    
     31500   371.19092      26320.799      1.1121921    
     31600   371.67029      26522.126      1.1037496    
     31700   377.95657      26282.118      1.1138291    
     31800   370.64516      26331.455      1.111742     
     31900   372.79647      26469.375      1.1059493    
     32000   376.18318      26449.315      1.1067881    
     32100   379.26476      26183.528      1.118023     
     32200   377.55067      26048.75       1.1238077    
     32300   372.57832      25946.239      1.1282478    
     32400   375.81718      26152.817      1.1193359    
     32500   381.16462      25936.92       1.1286531    
     32600   384.68228      26000.144      1.1259086    
     32700   372.14933      26035.988      1.1243586    
     32800   371.21264      26343.43       1.1112367    
     32900   368.16655      26066.787      1.1230301    
     33000   373.77304      25965.057      1.1274301    
     33100   375.9061       26096.476      1.1217524    
     33200   376.47773      26045.269      1.1239579    
     33300   367.50361      26158.396      1.1190971    
     33400   372.82932      26236.798      1.115753     
     33500   367.29339      26106.574      1.1213185    
     33600   373.33796      26297.854      1.1131625    
     33700   376.71274      26129.259      1.120345     
     33800   372.16609      26283.697      1.1137621    
     33900   373.26035      26487.341      1.1051991    
     34000   372.96479      25974.929      1.1270016    
     34100   378.94075      25724.544      1.137971     
     34200   370.14688      25856.29       1.1321727    
     34300   375.00618      26201.521      1.1172552    
     34400   367.75072      26176.993      1.1183021    
     34500   367.11415      26211.625      1.1168245    
     34600   372.13862      25903.633      1.1301035    
     34700   366.72435      25832.726      1.1332054    
     34800   371.24795      25944.295      1.1283323    
     34900   365.35925      26184.283      1.1179908    
     35000   364.83063      25894.913      1.130484     
     35100   366.86456      26184.037      1.1180012    
     35200   360.20481      26210.136      1.116888     
     35300   368.09119      26367.85       1.1102076    
     35400   358.4251       26378.191      1.1097723    
     35500   357.20011      25970.365      1.1271996    
     35600   361.82635      25661.485      1.1407674    
     35700   364.70549      25885.229      1.130907     
     35800   361.15015      25674.738      1.1401786    
     35900   357.91946      25800.379      1.1346262    
     36000   363.1168       25792.415      1.1349765    
     36100   358.63729      26025.315      1.1248197    
     36200   364.99559      26181.123      1.1181257    
     36300   362.62887      26034.185      1.1244364    
     36400   362.90867      26070.359      1.1228762    
     36500   359.34355      26317.46       1.1123333    
     36600   362.41628      26151.366      1.119398     
     36700   370.62545      26352.237      1.1108653    
     36800   371.10807      26261.2        1.1147162    
     36900   358.83416      26416.693      1.1081548    
     37000   373.83484      26447.309      1.106872     
     37100   370.19228      26399.059      1.1088951    
     37200   369.58772      26312.658      1.1125363    
     37300   372.62547      26659.644      1.0980561    
     37400   370.11964      26643.019      1.0987413    
     37500   374.75716      26541.919      1.1029265    
     37600   373.91869      26610.212      1.1000959    
     37700   370.34831      26423.777      1.1078578    
     37800   372.69773      26509.987      1.104255     
     37900   380.58876      26542.623      1.1028973    
     38000   368.85792      26198.852      1.117369     
     38100   376.68745      26556.858      1.1023061    
     38200   375.88039      26453.7        1.1066046    
     38300   371.73645      26249.486      1.1152137    
     38400   372.03548      26383.869      1.1095335    
     38500   370.67015      26335.344      1.1115779    
     38600   381.81794      26168.882      1.1186487    
     38700   377.51478      26332.514      1.1116973    
     38800   373.35431      26251.633      1.1151225    
     38900   376.89078      26045.369      1.1239536    
     39000   380.87409      26155.417      1.1192246    
     39100   374.14828      25837.718      1.1329865    
     39200   376.52262      26205.588      1.1170818    
     39300   373.21349      26599.777      1.1005275    
     39400   374.50646      26340.047      1.1113794    
     39500   375.47193      26427.543      1.1076999    
     39600   377.13139      25956.25       1.1278126    
     39700   380.61999      26230.689      1.1160128    
     39800   374.35615      26268.191      1.1144196    
     39900   366.75769      26465.631      1.1061057    
     40000   378.00646      26450.593      1.1067346    
     40100   376.42813      26416.336      1.1081698    
     40200   373.85487      26552.634      1.1024814    
     40300   372.37603      26499.923      1.1046744    
     40400   378.24341      26429.909      1.1076007    
     40500   369.50529      26306.992      1.1127759    
     40600   371.56437      26127.931      1.120402     
     40700   370.4691       26171.861      1.1185214    
     40800   379.7105       26144.808      1.1196787    
     40900   373.26463      26097.58       1.121705     
     41000   374.55704      26142.043      1.1197972    
     41100   377.75308      26206.956      1.1170235    
     41200   371.02331      26499.427      1.104695     
     41300   369.79531      26312.259      1.1125531    
     41400   368.63815      26308.245      1.1127229    
     41500   375.62499      26536.723      1.1031425    
     41600   370.13805      26320.999      1.1121837    
     41700   381.22596      26162.185      1.118935     
     41800   366.72124      26234.949      1.1158316    
     41900   376.36781      26307.469      1.1127557    
     42000   367.19279      26285.587      1.113682     
     42100   374.27503      26338.875      1.1114289    
     42200   365.52004      26247.976      1.1152778    
     42300   359.94298      26291.271      1.1134413    
     42400   361.55907      26324.295      1.1120444    
     42500   370.00683      26412.811      1.1083177    
     42600   367.55704      26254.634      1.114995     
     42700   369.45265      26156.79       1.1191658    
     42800   363.74818      26163.618      1.1188738    
     42900   368.42912      26057.728      1.1234205    
     43000   359.8487       26201.362      1.117262     
     43100   364.24016      25928.956      1.1289998    
     43200   376.94394      26131.138      1.1202645    
     43300   363.46384      26305.527      1.1128378    
     43400   364.37061      26574.073      1.101592     
     43500   372.00975      26403.785      1.1086966    
     43600   367.63367      26464.32       1.1061605    
     43700   368.1189       26325.041      1.1120129    
     43800   371.64494      26348.141      1.111038     
     43900   372.76562      26588.92       1.1009769    
     44000   367.79601      26310.487      1.112628     
     44100   376.09594      26265.908      1.1145164    
     44200   370.75929      26460.17       1.106334     
     44300   372.78271      26305.354      1.1128451    
     44400   379.68084      26206.807      1.1170298    
     44500   375.09244      26265.465      1.1145352    
     44600   377.37591      26140.467      1.1198647    
     44700   377.35133      25901.98       1.1301756    
     44800   374.97646      26007.913      1.1255723    
     44900   383.5873       25936.654      1.1286647    
     45000   379.94952      26230.736      1.1160109    
     45100   377.71596      26593.022      1.100807     
     45200   371.36064      26620.622      1.0996658    
     45300   383.883        26606.097      1.1002661    
     45400   382.02307      26231.36       1.1159843    
     45500   376.36389      26095.933      1.1217758    
     45600   371.67586      26311.363      1.112591     
     45700   378.05956      26362.565      1.1104301    
     45800   371.306        26604.952      1.1003134    
     45900   367.69787      26426.454      1.1077455    
     46000   371.9164       26530.263      1.1034111    
     46100   368.33365      26420.074      1.108013     
     46200   371.51356      26095.343      1.1218012    
     46300   372.75371      26353.308      1.1108202    
     46400   372.7124       26715.949      1.095742     
     46500   373.79679      26452.313      1.1066626    
     46600   376.87206      26320.851      1.11219      
     46700   371.11296      26188.509      1.1178103    
     46800   369.28953      26259.672      1.1147811    
     46900   373.22866      26437.266      1.1072925    
     47000   366.6724       26156.785      1.119166     
     47100   380.13416      26233.376      1.1158985    
     47200   376.61759      25925.173      1.1291645    
     47300   370.38913      26235.159      1.1158227    
     47400   365.66007      26258.688      1.1148229    
     47500   365.23021      26255.036      1.1149779    
     47600   369.50761      26470.405      1.1059062    
     47700   375.52902      26365.642      1.1103005    
     47800   366.57175      26079.623      1.1224774    
     47900   363.91434      25916.59       1.1295385    
     48000   372.99222      25939.919      1.1285227    
     48100   371.38449      26087.405      1.1221425    
     48200   371.2644       26093.687      1.1218723    
     48300   370.30694      26123.023      1.1206125    
     48400   362.64055      25893.542      1.1305439    
     48500   364.67365      25967.723      1.1273143    
     48600   371.62013      26153.796      1.119294     
     48700   360.77893      25823.463      1.1336119    
     48800   366.93675      25790.715      1.1350514    
     48900   366.46305      26194.819      1.117541     
     49000   357.96867      26269.215      1.1143761    
     49100   368.13332      26203.795      1.1171583    
     49200   361.81816      26124.658      1.1205424    
     49300   367.43779      25947.56       1.1281903    
     49400   361.77702      26230.291      1.1160298    
     49500   360.90853      26214.244      1.1167129    
     49600   362.96996      26131.07       1.1202674    
     49700   366.53452      25896.254      1.1304255    
     49800   366.68829      26093.693      1.1218721    
     49900   365.84462      26125.562      1.1205036    
     50000   365.14685      26027.347      1.1247319    
     50100   367.44937      26024.597      1.1248507    
     50200   367.23471      26099.057      1.1216415    
     50300   373.45246      26008.735      1.1255367    
     50400   369.26152      26065.371      1.1230911    
     50500   375.81863      26136.068      1.1200532    
     50600   374.37097      26383.582      1.1095455    
     50700   364.54784      26199.057      1.1173603    
     50800   363.35961      26428.643      1.1076538    
     50900   365.4142       26595.844      1.1006902    
     51000   380.48002      26686.2        1.0969634    
     51100   376.93172      26506.391      1.1044048    
     51200   378.52358      26395.507      1.1090443    
     51300   373.88972      26390.774      1.1092432    
     51400   378.948        26567.832      1.1018508    
     51500   370.60487      26637.072      1.0989866    
     51600   375.49807      26494.921      1.1048829    
     51700   375.94114      26187.511      1.1178529    
     51800   376.724        26290.163      1.1134882    
     51900   373.95404      26165.183      1.1188068    
     52000   379.81211      26383.313      1.1095569    
     52100   382.22283      26189.311      1.1177761    
     52200   376.67506      25927.424      1.1290665    
     52300   382.05451      26003.95       1.1257438    
     52400   379.5037       26023.651      1.1248916    
     52500   379.66692      25980.136      1.1267757    
     52600   381.11096      26066.706      1.1230336    
     52700   381.44604      25937.226      1.1286398    
     52800   382.61348      26078.98       1.122505     
     52900   381.07448      25858.102      1.1320934    
     53000   376.77436      25901.286      1.1302059    
     53100   383.98418      26051.123      1.1237053    
     53200   366.02394      25884.001      1.1309606    
     53300   376.67851      25776.564      1.1356745    
     53400   373.02764      25846.735      1.1325913    
     53500   375.49167      25916.024      1.1295632    
     53600   375.21406      25699.195      1.1390935    
     53700   368.1047       25805.231      1.1344129    
     53800   360.66398      25990.274      1.1263362    
     53900   369.86735      26074.386      1.1227028    
     54000   371.02775      26162.848      1.1189067    
     54100   372.68575      25966.507      1.1273671    
     54200   365.16639      25728.159      1.1378111    
     54300   369.52955      25837.078      1.1330146    
     54400   368.55406      25806.16       1.134372     
     54500   363.10133      25926.851      1.1290915    
     54600   366.69706      26013.464      1.1253321    
     54700   370.54026      25841.59       1.1328168    
     54800   369.32569      25567.23       1.1449729    
     54900   370.10674      25938.159      1.1285992    
     55000   364.83062      26064.31       1.1231368    
     55100   366.42875      25856.07       1.1321824    
     55200   369.73215      25758.999      1.1364489    
     55300   365.89962      25837.159      1.133011     
     55400   372.56536      25727.629      1.1378346    
     55500   375.6204       25563.879      1.145123     
     55600   378.13956      25704.632      1.1388526    
     55700   368.5533       25819.758      1.1337746    
     55800   369.88262      26119.28       1.1207731    
     55900   359.56354      26248.948      1.1152366    
     56000   363.91141      26214.221      1.116714     
     56100   370.47224      26195.199      1.1175248    
     56200   374.60488      26126.886      1.1204468    
     56300   368.43887      26010.462      1.125462     
     56400   380.96913      25974.374      1.1270257    
     56500   367.97566      26098.326      1.121673     
     56600   371.21236      26170.333      1.1185867    
     56700   376.79576      25893.844      1.1305307    
     56800   371.17873      26130.048      1.1203112    
     56900   375.10136      26089.654      1.1220458    
     57000   368.68896      26333.774      1.1116442    
     57100   377.35742      26403.961      1.1086892    
     57200   376.84843      26321.925      1.1121446    
     57300   375.09439      26390.763      1.1092436    
     57400   375.6871       26361.736      1.110465     
     57500   376.94853      26108.797      1.1212231    
     57600   386.95134      25967.553      1.1273217    
     57700   373.21093      26489.02       1.1051291    
     57800   375.70673      26471.563      1.1058578    
     57900   383.06335      26410.295      1.1084233    
     58000   374.8774       26458.437      1.1064065    
     58100   377.06246      26246.371      1.115346     
     58200   384.53776      26666.58       1.0977705    
     58300   377.86949      26312.877      1.112527     
     58400   374.82364      26638.302      1.0989359    
     58500   378.17574      26171.958      1.1185172    
     58600   382.93228      26430.049      1.1075949    
     58700   378.45976      26697.589      1.0964955    
     58800   374.47498      26680.426      1.0972009    
     58900   380.48528      26581.271      1.1012937    
     59000   382.92885      26162.053      1.1189407    
     59100   378.72233      26420.147      1.1080099    
     59200   375.05244      26586.498      1.1010772    
     59300   382.82419      26637.131      1.0989842    
     59400   376.99716      26608.498      1.1001668    
     59500   384.78273      26510.265      1.1042434    
     59600   374.98782      26359.006      1.11058      
     59700   379.74103      26361.195      1.1104878    
     59800   370.32435      26548.43       1.102656     
     59900   365.13752      26402.342      1.1087572    
     60000   374.35895      26310.509      1.1126271    
     60100   376.05215      26196.163      1.1174837    
     60200   374.27295      26184.323      1.117989     
     60300   372.15476      26246.257      1.1153509    
     60400   366.43076      26262.605      1.1146566    
     60500   375.01967      26295.871      1.1132465    
     60600   371.88746      26476.49       1.1056521    
     60700   376.13629      26165.508      1.1187929    
     60800   366.92866      26147.647      1.1195572    
     60900   374.87395      26331.002      1.1117612    
     61000   367.88953      26323.055      1.1120968    
     61100   374.84786      26203.022      1.1171912    
     61200   367.14035      26104.326      1.1214151    
     61300   370.26214      26146.805      1.1195932    
     61400   370.0174       26021.194      1.1249978    
     61500   372.99251      25987.416      1.12646      
     61600   371.18817      25945.27       1.1282899    
     61700   371.88014      25954.527      1.1278875    
     61800   367.21177      26345.687      1.1111415    
     61900   360.54039      25985.453      1.1265452    
     62000   377.31869      25940.748      1.1284866    
     62100   371.52314      25983.176      1.1266439    
     62200   378.91419      26010.702      1.1254516    
     62300   365.85521      26078.196      1.1225388    
     62400   372.61381      26155.867      1.1192053    
     62500   359.54382      26459.076      1.1063798    
     62600   367.08995      26227.26       1.1161587    
     62700   372.2792       25879.601      1.1311529    
     62800   377.87242      25803.388      1.1344939    
     62900   374.01656      25889.323      1.1307281    
     63000   366.07281      26156.461      1.1191799    
     63100   370.51634      26254.133      1.1150163    
     63200   374.61792      26098.007      1.1216866    
     63300   370.28103      26169.501      1.1186222    
     63400   366.26837      25992.115      1.1262564    
     63500   366.98155      26094.3        1.121846     
     63600   370.44529      26191.608      1.1176781    
     63700   371.82863      26063.651      1.1231652    
     63800   372.75128      26183.737      1.1180141    
     63900   369.43388      26208.425      1.1169609    
     64000   372.23901      26193.34       1.1176042    
     64100   365.09056      26078.182      1.1225394    
     64200   374.66997      26002.29       1.1258157    
     64300   378.71673      25961.644      1.1275783    
     64400   383.69315      25773.029      1.1358302    
     64500   385.38223      26071.012      1.1228481    
     64600   377.92545      26195.497      1.1175122    
     64700   377.84888      26086.27       1.1221913    
     64800   374.42438      25788.599      1.1351445    
     64900   377.02174      25979.326      1.1268108    
     65000   373.66897      25919.149      1.129427     
     65100   371.12206      26157.595      1.1191314    
     65200   380.72035      26121.095      1.1206952    
     65300   381.24895      26210.75       1.1168618    
     65400   377.17059      26255.778      1.1149464    
     65500   375.62122      26270.777      1.1143099    
     65600   371.27845      26334.727      1.1116039    
     65700   376.20181      25952.036      1.1279957    
     65800   377.71042      25891.984      1.1306119    
     65900   376.08161      26244.379      1.1154307    
     66000   376.56528      26247.976      1.1152778    
     66100   369.38789      26353.302      1.1108204    
     66200   375.22751      26507.63       1.1043532    
     66300   373.7083       26467.876      1.1060119    
     66400   373.12906      26271.235      1.1142904    
     66500   374.40629      26455.124      1.106545     
     66600   372.9079       26372.534      1.1100104    
     66700   380.14011      26392.897      1.109154     
     66800   372.47621      26286.34       1.1136501    
     66900   363.57678      26365.469      1.1103078    
     67000   373.37688      26505.445      1.1044443    
     67100   371.71307      26453.333      1.10662      
     67200   370.89934      26515.939      1.1040071    
     67300   368.86962      26510.602      1.1042294    
     67400   376.68767      26444.828      1.1069759    
     67500   376.68971      26418.172      1.1080928    
     67600   374.30947      26432.397      1.1074965    
     67700   372.70727      26468.424      1.105989     
     67800   377.19802      26405.642      1.1086186    
     67900   368.83624      26586.088      1.1010942    
     68000   369.56366      26278.34       1.1139892    
     68100   370.64901      26362.364      1.1104386    
     68200   367.45241      26602.751      1.1004045    
     68300   374.16026      26411.756      1.108362     
     68400   369.83858      26261.655      1.1146969    
     68500   374.87247      26341.443      1.1113205    
     68600   374.47063      26418.568      1.1080762    
     68700   369.86597      26254.834      1.1149865    
     68800   375.16697      26013.84       1.1253158    
     68900   377.73552      26050.03       1.1237525    
     69000   377.83463      26126.006      1.1204845    
     69100   364.08288      26374.937      1.1099092    
     69200   366.48972      26353.133      1.1108276    
     69300   370.54037      26344.633      1.1111859    
     69400   379.42975      26348.773      1.1110113    
     69500   372.84928      26422.84       1.107897     
     69600   370.8389       26652.786      1.0983387    
     69700   367.35418      26674.852      1.0974301    
     69800   372.37589      26141.181      1.1198341    
     69900   367.18981      26130.796      1.1202792    
     70000   367.13289      26078.641      1.1225196    
     70100   374.92446      26395.961      1.1090252    
     70200   377.88229      26558.883      1.102222     
     70300   377.03933      26667.827      1.0977192    
     70400   380.82809      25991.197      1.1262962    
     70500   375.06477      26050.061      1.1237512    
     70600   381.36137      26131.616      1.120244     
     70700   381.44652      26136.478      1.1200356    
     70800   379.37183      26071.958      1.1228073    
     70900   382.81585      26260.758      1.114735     
     71000   388.43883      26104.304      1.1214161    
     71100   371.89556      26533.226      1.1032879    
     71200   377.87759      26462.71       1.1062278    
     71300   382.80156      26255.2        1.114971     
     71400   381.79803      26342.152      1.1112906    
     71500   379.50711      26445.534      1.1069463    
     71600   378.36937      26285.238      1.1136968    
     71700   383.09904      26460.767      1.1063091    
     71800   384.33883      26768.067      1.0936085    
     71900   375.2705       26895.136      1.0884416    
     72000   385.88682      26561.652      1.1021071    
     72100   374.20305      26401.667      1.1087855    
     72200   383.12192      26333.132      1.1116713    
     72300   382.4612       25983.293      1.1266388    
     72400   380.07998      26019.807      1.1250578    
     72500   383.9098       26190.837      1.117711     
     72600   382.40535      26403.367      1.1087141    
     72700   379.0365       26354          1.110791     
     72800   369.28886      26415.276      1.1082143    
     72900   380.83624      26163.309      1.118887     
     73000   374.59346      26278.236      1.1139936    
     73100   376.12147      26341.836      1.1113039    
     73200   381.59558      25892.044      1.1306093    
     73300   372.70628      26068.206      1.1229689    
     73400   373.98959      26261.82       1.1146899    
     73500   377.12769      26187.397      1.1178578    
     73600   368.69695      26399.031      1.1088962    
     73700   365.98267      26317.439      1.1123341    
     73800   375.44986      26198.198      1.1173969    
     73900   385.29078      25840.836      1.1328498    
     74000   374.23138      26369.034      1.1101577    
     74100   368.10337      26071.108      1.122844     
     74200   380.2323       26437.753      1.1072721    
     74300   370.38332      26069.986      1.1228923    
     74400   376.08191      26088.052      1.1221147    
     74500   365.34485      25992.547      1.1262377    
     74600   370.53755      26380.899      1.1096584    
     74700   366.24905      26280.184      1.113911     
     74800   372.77562      26167.491      1.1187082    
     74900   379.40114      26028.263      1.1246923    
     75000   370.91719      25995.707      1.1261008    
     75100   365.3573       26020.539      1.1250261    
     75200   375.31909      26237.475      1.1157242    
     75300   371.95293      26201.636      1.1172503    
     75400   375.78319      26139.239      1.1199173    
     75500   374.89826      25904.039      1.1300858    
     75600   376.75647      25888.8        1.130751     
     75700   379.46927      25618.967      1.1426607    
     75800   366.07714      25828.628      1.1333853    
     75900   371.06304      26057.62       1.1234252    
     76000   369.00299      26365.153      1.1103211    
     76100   376.6125       26257.531      1.114872     
     76200   370.12449      25912.138      1.1297326    
     76300   380.5497       26154.384      1.1192688    
     76400   370.82912      25964.509      1.1274539    
     76500   383.43983      25910.057      1.1298233    
     76600   366.58888      25972.28       1.1271165    
     76700   368.74798      26000.695      1.1258847    
     76800   371.34389      26013.418      1.1253341    
     76900   369.27072      25922.874      1.1292647    
     77000   371.89523      25892.26       1.1305999    
     77100   369.72213      26182.249      1.1180776    
     77200   372.64369      26227.382      1.1161536    
     77300   377.49044      26302.612      1.1129612    
     77400   372.46518      26089.231      1.122064     
     77500   365.61108      25959.645      1.1276651    
     77600   379.6387       25986.49       1.1265002    
     77700   377.15289      26012.558      1.1253713    
     77800   379.59256      26092.104      1.1219404    
     77900   377.9511       25961.997      1.1275629    
     78000   372.17171      25978.048      1.1268663    
     78100   376.75714      25728.973      1.1377751    
     78200   373.33575      26278.518      1.1139816    
     78300   374.54718      26269.308      1.1143722    
     78400   377.43763      26713.559      1.09584      
     78500   375.72366      26516.531      1.1039825    
     78600   378.8271       26481.256      1.1054531    
     78700   379.93498      26717.313      1.095686     
     78800   378.18868      26585.974      1.1010989    
     78900   378.41723      26366.594      1.1102604    
     79000   382.38387      26327.767      1.1118978    
     79100   382.84712      26223.475      1.1163198    
     79200   384.9229       26042.989      1.1240563    
     79300   378.72274      26264.008      1.114597     
     79400   383.87865      26424.864      1.1078122    
     79500   379.3634       26288.891      1.1135421    
     79600   380.17355      26234.314      1.1158586    
     79700   381.39748      25858.97       1.1320554    
     79800   373.79808      26031.754      1.1245414    
     79900   378.14905      26141.351      1.1198268    
     80000   376.74792      25929.69       1.1289678    
     80100   373.23455      25946.65       1.1282299    
     80200   368.31727      26319.574      1.1122439    
     80300   375.6693       26313.979      1.1124804    
     80400   368.12327      26180.343      1.118159     
     80500   371.55001      25914.322      1.1296374    
     80600   369.2243       25773.049      1.1358294    
     80700   368.38345      25827.283      1.1334443    
     80800   367.05999      25806.677      1.1343493    
     80900   365.89172      26017.227      1.1251693    
     81000   364.49643      25996.373      1.1260719    
     81100   370.92045      25892.464      1.130591     
     81200   364.61689      25856.195      1.1321769    
     81300   373.04341      25880.611      1.1311088    
     81400   369.42647      25810.063      1.1342005    
     81500   367.37709      25691.809      1.139421     
     81600   368.13765      25738.944      1.1373344    
     81700   369.65696      25567.012      1.1449827    
     81800   370.11797      26121.926      1.1206595    
     81900   365.514        26053.594      1.1235988    
     82000   366.35948      26240.908      1.1155782    
     82100   366.11118      25873.082      1.1314379    
     82200   364.61741      25895.35       1.130465     
     82300   375.80463      25803.34       1.134496     
     82400   371.87101      25860.188      1.132002     
     82500   377.24596      25847.3        1.1325665    
     82600   375.01108      25830.164      1.1333179    
     82700   378.8506       25857.587      1.1321159    
     82800   366.93262      26166.792      1.118738     
     82900   370.22384      26310.542      1.1126257    
     83000   376.88699      25898.811      1.1303139    
     83100   372.23653      25866.012      1.1317472    
     83200   376.87997      26141.952      1.1198011    
     83300   380.45628      25997.623      1.1260178    
     83400   366.48054      26111.603      1.1211026    
     83500   370.4646       25956.158      1.1278166    
     83600   377.0625       26119.438      1.1207663    
     83700   382.58608      26033.882      1.1244495    
     83800   376.80471      26291.232      1.1134429    
     83900   376.01247      25959.163      1.1276861    
     84000   383.03865      25766.459      1.1361199    
     84100   380.94813      26047.893      1.1238447    
     84200   377.15065      26526.128      1.1035831    
     84300   379.90916      26246.362      1.1153464    
     84400   375.13038      26057.386      1.1234352    
     84500   378.1577       26037.959      1.1242735    
     84600   375.18212      26071.896      1.12281      
     84700   374.63706      25985.908      1.1265254    
     84800   374.54099      26027.531      1.1247239    
     84900   378.99236      25929.934      1.1289572    
     85000   374.61075      26131.482      1.1202497    
     85100   379.59613      26015.804      1.1252309    
     85200   381.5161       25901.511      1.1301961    
     85300   380.86881      25806.567      1.1343541    
     85400   377.01328      25999.943      1.1259173    
     85500   380.97402      26196.056      1.1174883    
     85600   378.32673      25995.426      1.1261129    
     85700   379.02779      26095.555      1.121792     
     85800   377.02252      26046.792      1.1238922    
     85900   370.67738      25878.55       1.1311988    
     86000   380.07372      25801.898      1.1345594    
     86100   374.8325       25960.229      1.1276397    
     86200   374.94634      25659.423      1.1408591    
     86300   370.78704      26022.401      1.1249456    
     86400   363.91578      25912.634      1.1297109    
     86500   368.95172      26236.626      1.1157603    
     86600   374.53029      26112.584      1.1210605    
     86700   371.85271      26185.84       1.1179243    
     86800   380.58056      25985.395      1.1265477    
     86900   375.51621      25989.34       1.1263766    
     87000   369.05144      25984.755      1.1265754    
     87100   369.62518      26200.249      1.1173094    
     87200   374.97195      26039.839      1.1241923    
     87300   367.9886       25896.829      1.1304004    
     87400   362.44641      26129.507      1.1203344    
     87500   366.70904      26086.136      1.1221971    
     87600   363.89489      25892.437      1.1305921    
     87700   369.00835      25911.897      1.1297431    
     87800   367.91067      25909.636      1.1298417    
     87900   366.85487      25845.515      1.1326447    
     88000   365.89433      26044.258      1.1240015    
     88100   363.47558      25949.084      1.1281241    
     88200   376.85903      25912.282      1.1297263    
     88300   370.9232       25824.088      1.1335845    
     88400   363.92097      25546.305      1.1459108    
     88500   374.31431      25850.488      1.1324268    
     88600   372.85572      25657.61       1.1409397    
     88700   375.24166      25597.664      1.1436116    
     88800   377.39786      25500.978      1.1479476    
     88900   380.53419      25451.28       1.1501892    
     89000   378.05901      25719.039      1.1382146    
     89100   379.40336      25975.094      1.1269944    
     89200   376.56996      25689.683      1.1395153    
     89300   373.45629      25575.798      1.1445893    
     89400   369.98228      25959.781      1.1276592    
     89500   377.32408      25909.427      1.1298508    
     89600   371.34317      25552.353      1.1456395    
     89700   390.63122      25414.976      1.1518321    
     89800   376.73161      25830.79       1.1332904    
     89900   383.56126      25889.87       1.1307043    
     90000   379.98514      26051.752      1.1236782    
     90100   374.49129      25685.872      1.1396843    
     90200   380.1098       25770.672      1.1359342    
     90300   384.00893      26009.124      1.1255199    
     90400   385.23302      25868.005      1.13166      
     90500   380.97291      25672.759      1.1402664    
     90600   385.05893      25501.221      1.1479366    
     90700   377.64096      25873.117      1.1314364    
     90800   380.70819      26053.194      1.123616     
     90900   375.92846      26287.173      1.1136149    
     91000   385.08576      26184.751      1.1179708    
     91100   379.31258      25940.185      1.1285111    
     91200   378.14833      25910.674      1.1297964    
     91300   385.90042      25943.306      1.1283753    
     91400   377.00774      26001.258      1.1258604    
     91500   379.58131      25786.456      1.1352388    
     91600   371.07392      25769.585      1.135982     
     91700   372.11009      26168.548      1.118663     
     91800   382.43363      25808.918      1.1342508    
     91900   374.58649      25720.937      1.1381306    
     92000   375.36099      25866.646      1.1317194    
     92100   378.63645      25888.95       1.1307444    
     92200   372.59006      25974.97       1.1269998    
     92300   365.41179      25944.5        1.1283234    
     92400   366.15318      26219.369      1.1164947    
     92500   368.0844       26208.575      1.1169545    
     92600   375.82511      26207.47       1.1170016    
     92700   362.02301      26187.115      1.1178698    
     92800   368.71719      26153.851      1.1192916    
     92900   364.90387      26054.225      1.1235716    
     93000   364.12363      25772.29       1.1358628    
     93100   368.00923      25642.947      1.1415921    
     93200   363.49094      25504.724      1.147779     
     93300   369.52809      25611.02       1.1430152    
     93400   370.15802      25766.962      1.1360977    
     93500   374.68356      25900.242      1.1302514    
     93600   372.26186      26183.572      1.1180211    
     93700   367.06596      25950.621      1.1280572    
     93800   370.35838      25854.889      1.1322341    
     93900   371.77238      25788.57       1.1351458    
     94000   378.31954      25652.364      1.141173     
     94100   371.76981      25854.827      1.1322368    
     94200   372.46411      26091.549      1.1219643    
     94300   375.84438      26181.307      1.1181178    
     94400   378.5541       25914.043      1.1296495    
     94500   367.45234      26127.089      1.1204381    
     94600   372.59059      26191.373      1.1176881    
     94700   374.36722      26035.105      1.1243967    
     94800   374.21685      25812.701      1.1340846    
     94900   371.00748      25673.511      1.1402331    
     95000   374.8943       26061.55       1.1232557    
     95100   382.88238      26004.158      1.1257348    
     95200   378.0499       26015.716      1.1252347    
     95300   379.01852      25809.657      1.1342183    
     95400   373.219        25883.39       1.1309873    
     95500   374.81831      26228.83       1.116092     
     95600   374.61845      26071.284      1.1228364    
     95700   373.23536      25989.721      1.1263601    
     95800   375.30005      26050.507      1.1237319    
     95900   372.57492      26457.1        1.1064624    
     96000   376.84608      26231.221      1.1159902    
     96100   379.84951      26288.883      1.1135424    
     96200   374.47457      26250.527      1.1151695    
     96300   364.64515      26110.218      1.1211621    
     96400   369.06423      26117.086      1.1208672    
     96500   374.33976      26043.855      1.1240189    
     96600   381.14549      25970.294      1.1272027    
     96700   373.00807      25795.253      1.1348517    
     96800   377.45913      25872.097      1.131481     
     96900   379.87606      25913.542      1.1296713    
     97000   375.38629      25771.692      1.1358892    
     97100   382.55062      25595.866      1.1436919    
     97200   378.50585      25829.409      1.133351     
     97300   376.65828      25739.957      1.1372896    
     97400   369.2186       25828.521      1.1333899    
     97500   372.98684      25890.773      1.1306648    
     97600   369.45735      26006.665      1.1256263    
     97700   376.46139      25953.395      1.1279367    
     97800   369.02201      25843.152      1.1327483    
     97900   369.81882      25495.099      1.1482123    
     98000   364.78454      25630.003      1.1421686    
     98100   369.50842      25720.626      1.1381444    
     98200   365.77889      25731.275      1.1376733    
     98300   373.79124      25832.299      1.1332242    
     98400   369.40979      25665.72       1.1405792    
     98500   367.97757      25582.774      1.1442772    
     98600   361.178        25765.643      1.1361559    
     98700   368.61156      25671.413      1.1403262    
     98800   369.12133      25742.296      1.1371863    
     98900   370.27645      25641.207      1.1416696    
     99000   370.48977      25360.683      1.154298     
     99100   368.33066      25526.184      1.146814     
     99200   368.43232      25809.629      1.1342196    
     99300   369.05225      25801.567      1.1345739    
     99400   364.58502      26069.368      1.1229189    
     99500   367.61504      25599.032      1.1435505    
     99600   360.83829      25692.802      1.1393769    
     99700   371.49964      25532.178      1.1465448    
     99800   363.87298      25530.193      1.1466339    
     99900   370.57991      25554.765      1.1455314    
    100000   367.87735      25651.957      1.1411911    
    100100   371.0111       25632.917      1.1420388    
    100200   372.26589      25870.615      1.1315458    
    100300   383.99346      25659.357      1.140862     
    100400   373.36477      26091.826      1.1219523    
    100500   363.7122       26202.76       1.1172024    
    100600   380.11417      26192.188      1.1176533    
    100700   368.29268      26144.752      1.1196812    
    100800   374.46349      25962.036      1.1275613    
    100900   370.07744      25914.94       1.1296104    
    101000   375.83695      26108.071      1.1212543    
    101100   376.07588      25898.589      1.1303236    
    101200   376.35634      26061.487      1.1232585    
    101300   375.89342      26040.958      1.124144     
    101400   378.41057      26326.381      1.1119563    
    101500   373.34399      26255.36       1.1149642    
    101600   370.14761      26018.226      1.1251261    
    101700   377.62419      25906.642      1.1299722    
    101800   377.55865      25891.888      1.1306161    
    101900   378.64519      25765.321      1.13617      
    102000   372.01964      25919.826      1.1293975    
    102100   373.91706      25932.15       1.1288607    
    102200   385.02025      26036.417      1.12434      
    102300   364.09882      26252.466      1.1150871    
    102400   369.43508      26349.006      1.1110015    
    102500   379.66866      26334.095      1.1116306    
    102600   373.16991      25982.121      1.1266896    
    102700   370.54114      26132.654      1.1201995    
    102800   381.15716      26087.586      1.1221347    
    102900   378.49109      26131.884      1.1202325    
    103000   375.26917      26346.479      1.1111081    
    103100   378.21371      26177.082      1.1182983    
    103200   371.65382      25789.451      1.135107     
    103300   367.69843      25651.762      1.1411998    
    103400   376.59326      25754.391      1.1366522    
    103500   376.27298      25877.983      1.1312236    
    103600   379.52353      25943.456      1.1283688    
    103700   372.6882       25874.093      1.1313937    
    103800   377.99747      25822.809      1.1336406    
    103900   374.67819      25945.987      1.1282587    
    104000   361.94335      26148.268      1.1195306    
    104100   367.37093      26280.795      1.1138851    
    104200   368.13049      26060.48       1.1233019    
    104300   366.24392      26273.57       1.1141914    
    104400   365.22007      26467.911      1.1060104    
    104500   356.95707      26510.273      1.1042431    
    104600   367.93876      26295.883      1.113246     
    104700   371.11477      25763.208      1.1362632    
    104800   368.54447      25902.034      1.1301733    
    104900   368.80934      25851.539      1.1323808    
    105000   365.82614      25835.023      1.1331047    
    105100   372.0921       25982.528      1.126672     
    105200   368.73353      26075.76       1.1226436    
    105300   362.18227      26315.718      1.1124069    
    105400   365.03382      26212.335      1.1167943    
    105500   366.80281      25863.209      1.1318698    
    105600   366.10003      25975.084      1.1269949    
    105700   363.34413      25967.458      1.1273258    
    105800   363.44446      25910.58       1.1298005    
    105900   359.9794       25841.43       1.1328238    
    106000   362.13472      25879.955      1.1311374    
    106100   359.76663      25917.061      1.129518     
    106200   357.46649      25887.345      1.1308146    
    106300   360.68979      25893.233      1.1305574    
    106400   361.8021       25862.397      1.1319054    
    106500   369.30557      25693.483      1.1393468    
    106600   357.28597      25587.149      1.1440816    
    106700   363.11822      25597.204      1.1436322    
    106800   368.69323      25631.482      1.1421027    
    106900   363.83627      25855.868      1.1321912    
    107000   366.50239      26284.865      1.1137126    
    107100   363.15401      26133.51       1.1201628    
    107200   371.69114      26017.063      1.1251764    
    107300   359.85802      25978.199      1.1268597    
    107400   366.80642      25769.136      1.1360018    
    107500   372.17988      26059.919      1.123326     
    107600   372.92529      26239.22       1.11565      
    107700   366.25908      26221.657      1.1163973    
    107800   363.29556      26380.093      1.1096923    
    107900   365.91887      26483.239      1.1053703    
    108000   370.41677      25920.743      1.1293575    
    108100   376.22716      26127.69       1.1204123    
    108200   372.07424      26176.803      1.1183102    
    108300   373.4223       26025.118      1.1248282    
    108400   377.20016      25827.981      1.1334136    
    108500   378.48164      25613.544      1.1429026    
    108600   374.56461      25819.487      1.1337865    
    108700   375.5134       25953.496      1.1279323    
    108800   376.79314      25900.125      1.1302566    
    108900   371.18308      25862.998      1.131879     
    109000   378.25953      25823.399      1.1336147    
    109100   373.29375      25634.867      1.1419519    
    109200   379.33089      25657.597      1.1409403    
    109300   371.62868      26004.531      1.1257186    
    109400   378.83288      25972.836      1.1270924    
    109500   379.01169      25827.607      1.1334301    
    109600   376.81908      25986.232      1.1265114    
    109700   375.36027      25963.093      1.1275154    
    109800   376.94285      26065.207      1.1230982    
    109900   379.18985      26173.735      1.1184413    
    110000   365.00866      26044.213      1.1240035    
    110100   373.77656      25987.207      1.1264691    
    110200   377.45872      25887.762      1.1307963    
    110300   378.83987      25873.617      1.1314145    
    110400   384.27844      25700.392      1.1390404    
    110500   377.21741      25724.56       1.1379703    
    110600   376.5336       26045.504      1.1239478    
    110700   371.04818      26116.071      1.1209108    
    110800   374.36629      25976.97       1.126913     
    110900   369.23867      26054.155      1.1235746    
    111000   372.40156      25671.442      1.1403249    
    111100   368.33041      25889.694      1.1307119    
    111200   368.22547      25983.041      1.1266497    
    111300   362.26799      26112.622      1.1210588    
    111400   368.24258      26188.096      1.1178279    
    111500   370.82865      26161.023      1.1189848    
    111600   366.55088      25635.735      1.1419133    
    111700   367.66899      25842.727      1.1327669    
    111800   367.55168      26198.397      1.1173884    
    111900   367.37463      26099.959      1.1216028    
    112000   364.85843      26106.157      1.1213365    
    112100   360.39246      25793.893      1.1349115    
    112200   355.65776      26112.03       1.1210843    
    112300   364.12525      26317.453      1.1123336    
    112400   365.34731      26116.389      1.1208972    
    112500   368.07001      25880.324      1.1311213    
    112600   359.89868      25962.507      1.1275408    
    112700   370.45634      25822.85       1.1336388    
    112800   361.73316      25941.871      1.1284377    
    112900   370.18136      25787.904      1.1351751    
    113000   366.04325      25834.147      1.1331431    
    113100   372.31802      25503.857      1.147818     
    113200   370.76809      25764.925      1.1361875    
    113300   371.82009      25941.115      1.1284706    
    113400   367.15378      26006.83       1.1256191    
    113500   369.08162      25954.188      1.1279022    
    113600   379.81493      26099.891      1.1216057    
    113700   379.36311      26003.847      1.1257483    
    113800   379.44769      26133.516      1.1201625    
    113900   381.39418      26105.469      1.121366     
    114000   377.90129      25802.426      1.1345362    
    114100   374.62106      26243.174      1.1154819    
    114200   376.23781      26080.102      1.1224567    
    114300   374.24176      26249.552      1.1152109    
    114400   369.32814      26373.102      1.1099865    
    114500   377.88621      26344.838      1.1111773    
    114600   371.20602      26106.669      1.1213145    
    114700   370.61014      26055.089      1.1235343    
    114800   373.08636      26082.62       1.1223484    
    114900   376.885        26788.973      1.0927551    
    115000   375.18939      26129.348      1.1203412    
    115100   373.63445      26388.905      1.1093218    
    115200   372.22153      26394.281      1.1090958    
    115300   369.43019      26488.961      1.1051315    
    115400   374.35959      26168.379      1.1186702    
    115500   370.48809      25752.029      1.1367565    
    115600   380.75518      26133.139      1.1201787    
    115700   375.7692       26245.315      1.1153909    
    115800   367.53254      26132.466      1.1202076    
    115900   383.6991       25996.1        1.1260837    
    116000   382.51707      26064.096      1.123146     
    116100   373.74568      26133.179      1.120177     
    116200   374.41458      26023.088      1.1249159    
    116300   370.73958      25996.23       1.1260781    
    116400   379.67158      26194.945      1.1175357    
    116500   373.96623      26218.765      1.1165204    
    116600   374.43253      26141.02       1.119841     
    116700   383.81825      26152.484      1.1193501    
    116800   373.27487      25905.851      1.1300067    
    116900   378.81378      25690.732      1.1394688    
    117000   374.06872      25944.987      1.1283022    
    117100   372.94946      26163.385      1.1188837    
    117200   369.39186      25920.5        1.1293681    
    117300   374.8322       25877.464      1.1312463    
    117400   378.5219       25894.359      1.1305082    
    117500   372.45917      25941.591      1.1284499    
    117600   367.28266      25795.333      1.1348482    
    117700   374.53878      25589.486      1.1439771    
    117800   365.78052      25678.906      1.1399935    
    117900   368.36464      26133.405      1.1201673    
    118000   357.96374      26242.777      1.1154988    
    118100   368.5853       25883.951      1.1309628    
    118200   372.56278      25695.587      1.1392535    
    118300   369.41721      25842.051      1.1327965    
    118400   361.41919      26254.476      1.1150017    
    118500   366.75029      25875.552      1.1313299    
    118600   369.34905      25948.52       1.1281486    
    118700   366.47681      25761.475      1.1363397    
    118800   361.08063      25895.186      1.1304721    
    118900   370.7686       26181.832      1.1180954    
    119000   363.37534      26077.443      1.1225712    
    119100   365.65449      25872.615      1.1314583    
    119200   377.35974      25976.565      1.1269306    
    119300   367.34196      25900.322      1.1302479    
    119400   373.36674      25511.111      1.1474916    
    119500   372.22084      25710.337      1.1385999    
    119600   370.33358      25627.995      1.1422581    
    119700   378.83724      25955.649      1.1278387    
    119800   377.28039      25767.061      1.1360933    
    119900   371.23999      25795.575      1.1348375    
    120000   378.37405      25719.403      1.1381985    
    120100   374.20021      25790.452      1.1350629    
    120200   378.62121      26130.354      1.1202981    
    120300   374.4741       26189.087      1.1177857    
    120400   384.65405      25793.074      1.1349476    
    120500   383.85347      26016.181      1.1252146    
    120600   378.99498      25791.78       1.1350045    
    120700   381.79958      25693.139      1.139362     
    120800   380.87226      25839.109      1.1329255    
    120900   380.75062      25890.047      1.1306965    
    121000   381.59685      25621.637      1.1425416    
    121100   371.91084      25689.731      1.1395131    
    121200   382.05253      25766.992      1.1360964    
    121300   376.34525      25740.519      1.1372648    
    121400   368.81581      25844.625      1.1326837    
    121500   376.15113      25940.324      1.128505     
    121600   371.00364      26078.721      1.1225162    
    121700   373.86552      25836.825      1.1330257    
    121800   379.99168      26079.073      1.122501     
    121900   375.31123      26152.453      1.1193514    
    122000   377.08479      26104.681      1.1213999    
    122100   374.04952      25887.559      1.1308052    
    122200   375.76248      25760.912      1.1363645    
    122300   374.41831      25820.491      1.1337424    
    122400   376.24298      26065.989      1.1230645    
    122500   371.01975      25679.019      1.1399885    
    122600   375.51907      25548.056      1.1458322    
    122700   374.03238      25688.701      1.1395588    
    122800   366.99606      25780.775      1.135489     
    122900   378.55877      25699.185      1.1390939    
    123000   372.19962      25658.965      1.1408795    
    123100   375.04948      25815.237      1.1339732    
    123200   366.12031      25755.548      1.1366012    
    123300   371.94663      25645.232      1.1414904    
    123400   371.70897      25482.833      1.148765     
    123500   368.58579      25625.675      1.1423615    
    123600   365.76044      25786.535      1.1352354    
    123700   371.41596      25873.171      1.131434     
    123800   373.1926       26128.33       1.1203849    
    123900   367.59392      25851.098      1.1324001    
    124000   364.7046       25857.217      1.1321321    
    124100   360.76996      25945.057      1.1282991    
    124200   371.46003      25517.548      1.1472021    
    124300   363.55293      25757.481      1.1365159    
    124400   366.94568      25738.156      1.1373692    
    124500   361.53282      25897.449      1.1303733    
    124600   366.78801      25829.978      1.133326     
    124700   369.40796      25683.911      1.1397713    
    124800   368.88423      25753.609      1.1366867    
    124900   371.22743      26019.505      1.1250708    
    125000   369.74542      25856.76       1.1321522    
    125100   366.59545      26003.291      1.1257723    
    125200   367.11093      25872.016      1.1314845    
    125300   372.07625      25889.667      1.1307131    
    125400   367.5746       25918.121      1.1294718    
    125500   371.74166      25977.864      1.1268742    
    125600   376.26647      25807.705      1.1343041    
    125700   368.79389      26063.543      1.1231698    
    125800   381.20653      25786.679      1.135229     
    125900   375.84716      26044.685      1.1239831    
    126000   378.65173      26234.838      1.1158364    
    126100   372.15851      26316.182      1.1123873    
    126200   373.82393      26290.093      1.1134912    
    126300   368.98972      26248.755      1.1152448    
    126400   377.50681      26045.173      1.123962     
    126500   377.29091      26154.73       1.119254     
    126600   375.41712      26098.855      1.1216502    
    126700   377.66554      26299.941      1.1130742    
    126800   373.78274      26205.846      1.1170708    
    126900   382.33626      26294.301      1.1133129    
    127000   384.21771      26142.125      1.1197937    
    127100   377.04901      26222.628      1.1163559    
    127200   377.50267      26412.524      1.1083297    
    127300   374.41722      26077.662      1.1225617    
    127400   381.52438      26099.581      1.121619     
    127500   376.80744      25948.837      1.1281348    
    127600   367.65198      26044.625      1.1239857    
    127700   376.3003       26104.485      1.1214083    
    127800   374.17609      26001.236      1.1258613    
    127900   372.57631      26102.108      1.1215104    
    128000   377.85318      26295.792      1.1132498    
    128100   364.096        26424.706      1.1078188    
    128200   368.9891       26367.528      1.1102211    
    128300   379.11153      26029.714      1.1246295    
    128400   380.40002      26064.823      1.1231147    
    128500   376.4261       26000.503      1.1258931    
    128600   376.50315      26272.322      1.1142443    
    128700   374.49776      26408.724      1.1084892    
    128800   364.09145      26546.836      1.1027222    
    128900   365.15782      26430.616      1.1075711    
    129000   366.89195      26325.96       1.1119741    
    129100   369.18147      26037.22       1.1243054    
    129200   368.46134      25963.547      1.1274956    
    129300   369.03442      25779.39       1.13555      
    129400   361.752        25957.853      1.127743     
    129500   374.10832      26036.09       1.1243542    
    129600   364.9722       25924.716      1.1291845    
    129700   370.17327      26098.51       1.121665     
    129800   368.85018      26134.122      1.1201366    
    129900   365.98963      26438.827      1.1072271    
    130000   373.85127      26141.004      1.1198417    
    130100   368.93887      25953.353      1.1279385    
    130200   366.89632      26013.331      1.1253378    
    130300   366.9594       26331.862      1.1117249    
    130400   368.05434      26250.758      1.1151596    
    130500   367.59457      26294.15       1.1133194    
    130600   373.23084      26159.31       1.119058     
    130700   371.69153      25818.611      1.133825     
    130800   376.83167      25660.078      1.14083      
    130900   378.05647      25647.131      1.1414059    
    131000   367.83823      25928.915      1.1290016    
    131100   370.45029      26074.623      1.1226926    
    131200   370.1984       25881.904      1.1310523    
    131300   367.72075      25744.045      1.137109     
    131400   370.9097       25788.219      1.1351612    
    131500   373.8787       25692.172      1.1394049    
    131600   377.26484      25749.503      1.136868     
    131700   372.7768       26086.175      1.1221954    
    131800   371.80331      26064.299      1.1231373    
    131900   375.91599      25903.001      1.130131     
    132000   373.64682      25751.786      1.1367672    
    132100   372.69453      26260.775      1.1147343    
    132200   377.67753      26094.261      1.1218477    
    132300   377.20672      26188.385      1.1178156    
    132400   377.01495      25889.582      1.1307168    
    132500   379.00837      25975.519      1.126976     
    132600   364.97176      26146.182      1.1196199    
    132700   372.12392      26076.729      1.1226019    
    132800   372.82125      26146.48       1.1196071    
    132900   369.49374      26319.525      1.112246     
    133000   377.61314      26035.98       1.1243589    
    133100   377.76158      26162.346      1.1189282    
    133200   382.88735      25806.174      1.1343714    
    133300   378.61042      25986.376      1.1265051    
    133400   372.69013      25728.094      1.137814     
    133500   379.57552      25862.514      1.1319003    
    133600   376.91053      25934.577      1.1287551    
    133700   381.16574      25925.814      1.1291366    
    133800   369.41007      25932.396      1.12885      
    133900   368.49606      25797.672      1.1347453    
    134000   380.05426      25653.439      1.1411252    
    134100   374.35868      25582.444      1.144292     
    134200   369.40448      25780.988      1.1354796    
    134300   370.58376      26058.025      1.1234077    
    134400   377.21091      25833.946      1.1331519    
    134500   369.10438      26036.25       1.1243472    
    134600   365.75504      26035.036      1.1243997    
    134700   369.98001      25886.255      1.1308621    
    134800   372.31159      26139.571      1.1199031    
    134900   373.98435      25946.092      1.1282542    
    135000   367.62725      26008.411      1.1255507    
    135100   374.35945      25733.562      1.1375722    
    135200   375.71334      25707.612      1.1387206    
    135300   368.34203      25878.444      1.1312035    
    135400   369.58274      25767.273      1.136084     
    135500   372.58395      25714.651      1.1384088    
    135600   371.83642      25724.624      1.1379675    
    135700   368.98807      25649.99       1.1412787    
    135800   363.50122      26079.178      1.1224965    
    135900   368.48736      25807.214      1.1343257    
    136000   371.98068      25780.972      1.1354803    
    136100   371.50099      25661.977      1.1407455    
    136200   370.88683      25596.706      1.1436544    
    136300   368.35644      25641.454      1.1416586    
    136400   377.52241      25622.908      1.1424849    
[...]
   1167700   436.28315      27105.703      1.0799862    
   1167800   435.23516      27164.328      1.0776554    
   1167900   441.73611      27030.944      1.0829731    
   1168000   438.10793      26929.5        1.0870527    
   1168100   430.98969      27257.249      1.0739817    
   1168200   446.09271      27410.846      1.0679636    
   1168300   448.09443      27224.116      1.0752888    
   1168400   437.10698      27021.399      1.0833557    
   1168500   437.04324      27222.603      1.0753485    
   1168600   441.85525      27174.688      1.0772446    
   1168700   435.14193      27173.673      1.0772849    
   1168800   438.48091      27173.654      1.0772856    
   1168900   454.06818      27288.314      1.0727591    
   1169000   441.15481      27060.525      1.0817893    
   1169100   447.38128      26718.116      1.0956531    
   1169200   446.73692      27042.302      1.0825183    
   1169300   449.33425      26932.199      1.0869438    
   1169400   449.59137      27033.527      1.0828697    
   1169500   446.94301      27100.315      1.0802009    
   1169600   445.77256      26948.084      1.0863031    
   1169700   452.28361      26752.032      1.094264     
   1169800   445.75719      27007.373      1.0839183    
   1169900   447.80968      26894.424      1.0884705    
   1170000   448.07193      27121.498      1.0793573    
   1170100   446.16154      26967.672      1.085514     
   1170200   447.25962      27079.588      1.0810277    
   1170300   436.95289      27176.935      1.0771555    
   1170400   446.0035       27450.243      1.0664309    
   1170500   435.47025      27485.087      1.0650789    
   1170600   446.90706      27103.046      1.0800921    
   1170700   441.83164      26853.638      1.0901237    
   1170800   442.68145      27036.73       1.0827414    
   1170900   443.29866      27096.397      1.0803571    
   1171000   443.38685      27283.101      1.072964     
   1171100   448.91803      27024.927      1.0832142    
   1171200   447.06358      27045.24       1.0824007    
   1171300   444.32775      27129.535      1.0790375    
   1171400   448.18078      26756.389      1.0940858    
   1171500   450.08898      26731.172      1.0951179    
   1171600   444.72495      26953.138      1.0860994    
   1171700   436.89146      27446.124      1.0665909    
   1171800   441.83928      27607.52       1.0603555    
   1171900   443.23391      27679.431      1.0576007    
   1172000   441.14942      27415.087      1.0677984    
   1172100   437.43799      27130.591      1.0789955    
   1172200   440.64013      27150.882      1.0781891    
   1172300   435.82819      27286.269      1.0728395    
   1172400   444.78153      27349.215      1.0703703    
   1172500   434.29752      27182.508      1.0769347    
   1172600   452.7732       27067.813      1.081498     
   1172700   445.83296      26954.085      1.0860612    
   1172800   438.35925      26933.271      1.0869005    
   1172900   436.9101       26972.034      1.0853385    
   1173000   435.79929      27004.194      1.0840459    
   1173100   439.70976      26554.451      1.102406     
   1173200   439.61763      26676.12       1.097378     
   1173300   442.17703      27033.791      1.0828591    
   1173400   439.10946      26968.006      1.0855006    
   1173500   434.64195      26978.414      1.0850818    
   1173600   428.5687       26932.517      1.086931     
   1173700   435.87828      27190.584      1.0766148    
   1173800   430.60304      27019.732      1.0834225    
   1173900   425.16648      27127.8        1.0791065    
   1174000   434.53099      26797.25       1.0924175    
   1174100   431.85236      27045.246      1.0824004    
   1174200   432.22303      26795.004      1.0925091    
   1174300   438.14094      27037.19       1.0827229    
   1174400   429.91428      26866.077      1.0896189    
   1174500   427.56183      26973.551      1.0852774    
   1174600   430.02044      26900.955      1.0882062    
   1174700   428.78253      27047.191      1.0823226    
   1174800   436.71166      27033.911      1.0828543    
   1174900   424.49765      27370.414      1.0695412    
   1175000   437.63495      27359.017      1.0699868    
   1175100   441.42159      27053.478      1.0820711    
   1175200   433.54206      26846.469      1.0904148    
   1175300   442.00596      26784.885      1.0929219    
   1175400   441.34268      26675.947      1.0973851    
   1175500   435.92124      26748.007      1.0944287    
   1175600   438.95327      26954.193      1.0860568    
   1175700   448.01122      26954.266      1.0860539    
   1175800   439.57944      26909.933      1.0878431    
   1175900   444.2559       26786.125      1.0928713    
   1176000   437.64906      26582.08       1.1012602    
   1176100   443.79367      26605.332      1.1002977    
   1176200   447.28021      26749.269      1.094377     
   1176300   450.93617      26751.37       1.0942911    
   1176400   445.68698      26836.541      1.0908181    
   1176500   445.58246      26956.512      1.0859634    
   1176600   448.28187      26880.801      1.0890221    
   1176700   433.80158      26722.729      1.095464     
   1176800   445.76147      26736.723      1.0948906    
   1176900   450.81915      26904.994      1.0880428    
   1177000   439.75423      27051.528      1.0821491    
   1177100   446.03367      27008.803      1.0838609    
   1177200   442.73906      27139.367      1.0786466    
   1177300   443.54047      27182.985      1.0769158    
   1177400   438.71889      27098.071      1.0802904    
   1177500   443.74215      26814.755      1.0917044    
   1177600   451.60145      26815.535      1.0916726    
   1177700   437.36333      26871.175      1.0894122    
   1177800   452.55364      27075.72       1.0811822    
   1177900   452.72901      26759.421      1.0939619    
   1178000   448.96635      26842.871      1.0905609    
   1178100   440.85644      26914.712      1.08765      
   1178200   451.85417      27357.409      1.0700497    
   1178300   444.20677      27095.42       1.0803961    
   1178400   451.24644      26943.64       1.0864822    
   1178500   436.37316      27069.524      1.0814296    
   1178600   443.89656      27272.988      1.0733619    
   1178700   441.8596       27448.742      1.0664892    
   1178800   445.28297      27012.446      1.0837147    
   1178900   433.63715      26985.271      1.0848061    
   1179000   448.04145      27014.691      1.0836247    
   1179100   439.27827      27032.426      1.0829137    
   1179200   428.23074      27201.141      1.076197     
   1179300   442.28814      27139.103      1.0786571    
   1179400   441.47098      27343.042      1.0706119    
   1179500   446.20213      26780.783      1.0930893    
   1179600   447.32081      26729.875      1.0951711    
   1179700   443.61804      26444.039      1.1070089    
   1179800   437.64158      26396.974      1.1089826    
   1179900   439.57915      27012.935      1.0836951    
   1180000   450.65126      26865.575      1.0896393    
   1180100   433.10439      26875.028      1.089256     
   1180200   439.37513      26600.223      1.1005091    
   1180300   434.89929      26534.283      1.1032439    
   1180400   439.61778      26432.665      1.1074852    
   1180500   440.57328      26631.691      1.0992087    
   1180600   429.81045      26590.02       1.1009313    
   1180700   430.2174       26588.145      1.101009     
   1180800   440.89336      26303.883      1.1129074    
   1180900   427.35399      26438.78       1.1072291    
   1181000   432.98674      26439.129      1.1072144    
   1181100   431.7776       26411.031      1.1083924    
   1181200   437.49622      26316.109      1.1123903    
   1181300   438.78126      26636.992      1.0989899    
   1181400   435.72271      27064.604      1.0816262    
   1181500   429.11629      26674.936      1.0974267    
   1181600   434.15568      26696.069      1.0965579    
   1181700   438.52692      26882.476      1.0889542    
   1181800   443.54401      27031.624      1.0829459    
   1181900   433.58245      27052.106      1.0821259    
   1182000   438.9226       27021.96       1.0833332    
   1182100   436.92623      27107.162      1.0799281    
   1182200   437.17895      26969.283      1.0854492    
   1182300   434.94475      27217.954      1.0755322    
   1182400   445.15376      27139.514      1.0786408    
   1182500   439.96538      26974.967      1.0852204    
   1182600   443.57819      27090.431      1.080595     
   1182700   449.46165      27283.537      1.0729469    
   1182800   448.82956      27342.844      1.0706196    
   1182900   445.94664      27149.858      1.0782298    
   1183000   446.63478      27472.822      1.0655544    
   1183100   442.0918       27755.726      1.0546936    
   1183200   443.63766      27864.051      1.0505933    
   1183300   449.26945      27254.077      1.0741067    
   1183400   444.38627      27223.865      1.0752987    
   1183500   453.02574      27478.159      1.0653474    
   1183600   446.47876      27589.849      1.0610347    
   1183700   441.57315      27839.445      1.0515219    
   1183800   441.82607      27499.859      1.0645068    
   1183900   447.34649      27593.015      1.0609129    
   1184000   444.47763      27352.611      1.0702373    
   1184100   451.36569      27213.67       1.0757015    
   1184200   449.78988      27367.178      1.0696677    
   1184300   451.78481      27644.303      1.0589446    
   1184400   449.0622       27581.847      1.0613425    
   1184500   440.82975      27662.505      1.0582478    
   1184600   453.76795      27408.969      1.0680367    
   1184700   449.99822      27654.064      1.0585709    
   1184800   444.64781      27121.141      1.0793715    
   1184900   446.96747      26979.097      1.0850543    
   1185000   452.3961       26755.709      1.0941136    
   1185100   447.95611      26941.834      1.0865551    
   1185200   445.58271      27099.717      1.0802248    
   1185300   447.66588      27155.535      1.0780044    
   1185400   441.46306      26862.753      1.0897537    
   1185500   443.38774      27183.656      1.0768892    
   1185600   437.78563      27195.713      1.0764118    
   1185700   443.72745      27526.135      1.0634906    
   1185800   441.25929      27374.065      1.0693986    
   1185900   443.15006      27170.702      1.0774026    
   1186000   443.08095      27259.03       1.0739115    
   1186100   439.55624      27430.5        1.0671984    
   1186200   438.51093      27145.395      1.0784071    
   1186300   438.48035      27753.472      1.0547792    
   1186400   439.22587      27370.753      1.069528     
   1186500   437.66386      27352.214      1.0702529    
   1186600   434.25996      27147.98       1.0783044    
   1186700   445.19669      27164.555      1.0776464    
   1186800   431.53172      26760.932      1.0939001    
   1186900   438.6978       26658.211      1.0981152    
   1187000   436.97262      27287.686      1.0727838    
   1187100   440.21372      27205.723      1.0760157    
   1187200   436.2176       27131.69       1.0789518    
   1187300   430.42803      27168.635      1.0774846    
   1187400   437.12666      27113.371      1.0796808    
   1187500   430.73315      27074.32       1.0812381    
   1187600   449.81532      27074.095      1.0812471    
   1187700   437.1868       26823.489      1.0913489    
   1187800   440.72469      26766.844      1.0936585    
   1187900   435.42816      26970.345      1.0854064    
   1188000   442.77139      27214.038      1.075687     
   1188100   438.99733      27470.005      1.0656637    
   1188200   444.66967      27229.496      1.0750763    
   1188300   439.24928      27059.193      1.0818426    
   1188400   453.45677      27112.268      1.0797247    
   1188500   450.09701      27028.902      1.083055     
   1188600   442.84636      27156.074      1.077983     
   1188700   461.36515      27075.748      1.0811811    
   1188800   454.86969      27277.432      1.073187     
   1188900   452.07027      27249.633      1.0742818    
   1189000   454.45791      27601.445      1.0605889    
   1189100   452.1049       27436.735      1.0669559    
   1189200   452.45619      27138.266      1.0786904    
   1189300   447.71321      27216.501      1.0755896    
   1189400   445.46003      27638.618      1.0591624    
   1189500   446.15018      27736.683      1.0554177    
   1189600   451.46293      27244.452      1.0744861    
   1189700   446.66965      27189.646      1.076652     
   1189800   448.71358      27132.123      1.0789346    
   1189900   455.01236      27587.714      1.0611168    
   1190000   443.63858      27427.497      1.0673153    
   1190100   447.83923      27376.043      1.0693213    
   1190200   443.07589      27540.563      1.0629334    
   1190300   449.28573      27799.572      1.0530301    
   1190400   447.9436       27502.742      1.0643952    
   1190500   447.98415      27477.053      1.0653903    
   1190600   438.96142      27609.606      1.0602754    
   1190700   437.11068      27998.272      1.0455569    
   1190800   434.28971      27524.413      1.0635572    
   1190900   451.59274      27480.591      1.0652531    
   1191000   441.70187      27413.103      1.0678757    
   1191100   444.69339      27105.516      1.0799937    
   1191200   438.56305      27360.844      1.0699153    
   1191300   438.75944      27327.623      1.071216     
   1191400   434.32399      27188.643      1.0766917    
   1191500   439.868        27287.993      1.0727717    
   1191600   439.22277      27028.3        1.0830791    
   1191700   439.85315      27019.889      1.0834162    
   1191800   447.37646      27145.073      1.0784199    
   1191900   433.07958      26930.914      1.0869956    
   1192000   447.5138       27092.121      1.0805277    
   1192100   438.12323      27032.736      1.0829013    
   1192200   446.31608      27229.516      1.0750755    
   1192300   432.60743      27318.948      1.0715561    
   1192400   435.67228      27675.053      1.057768     
   1192500   439.85098      27526.379      1.0634812    
   1192600   438.41642      27245.771      1.0744341    
   1192700   437.94105      27503.137      1.0643799    
   1192800   448.66393      27244.021      1.0745031    
   1192900   444.0844       27198.17       1.0763145    
   1193000   440.46693      26941.373      1.0865736    
   1193100   441.77601      27230.087      1.075053     
   1193200   439.57315      27026.627      1.0831461    
   1193300   440.45177      27282.364      1.072993     
   1193400   437.81897      27529.209      1.0633718    
   1193500   438.59304      27674.119      1.0578037    
   1193600   444.15745      27503.756      1.0643559    
   1193700   448.53172      27927.598      1.0482028    
   1193800   447.59777      27855.533      1.0509146    
   1193900   437.55761      27633.608      1.0593545    
   1194000   445.38451      27562.999      1.0620682    
   1194100   449.15048      27511.34       1.0640625    
   1194200   442.7152       27785.919      1.0535475    
   1194300   444.18211      27825.938      1.0520323    
   1194400   445.78368      27325.02       1.071318     
   1194500   457.45543      27475.857      1.0654367    
   1194600   451.58445      27349.236      1.0703694    
   1194700   449.92647      27699.64       1.0568291    
   1194800   456.29978      27421.476      1.0675496    
   1194900   443.24877      27510.121      1.0641097    
   1195000   455.06625      27336.007      1.0708874    
   1195100   449.20431      27472.793      1.0655555    
   1195200   449.54845      27434.762      1.0670326    
   1195300   455.38794      27492.922      1.0647753    
   1195400   452.81297      27584.966      1.0612225    
   1195500   454.7535       27689.468      1.0572173    
   1195600   445.59663      28075.829      1.0426686    
   1195700   436.93546      27928.931      1.0481527    
   1195800   445.7794       27641.292      1.05906      
   1195900   448.12887      27779.496      1.0537911    
   1196000   440.79828      27421.23       1.0675592    
   1196100   445.82206      27283.926      1.0729316    
   1196200   435.06433      27269.352      1.073505     
   1196300   446.55606      27486.616      1.0650196    
   1196400   439.95258      27726.929      1.055789     
   1196500   445.10549      27694.802      1.0570137    
   1196600   446.20668      27228.394      1.0751198    
   1196700   442.97364      27161.593      1.077764     
   1196800   448.32869      26907.358      1.0879472    
   1196900   440.75747      27146.056      1.0783808    
   1197000   443.05329      27335.682      1.0709002    
   1197100   437.82146      27560.963      1.0621467    
   1197200   445.41546      27259.932      1.073876     
   1197300   442.13552      27145.282      1.0784115    
   1197400   436.7418       27139.011      1.0786607    
   1197500   443.05497      27044.941      1.0824126    
   1197600   443.10343      27513.381      1.0639836    
   1197700   443.00398      27224.823      1.0752608    
   1197800   443.89666      27002.976      1.0840948    
   1197900   436.50911      27161.826      1.0777547    
   1198000   434.43343      27241.012      1.0746218    
   1198100   447.49906      27303.06       1.0721797    
   1198200   439.89512      27031.625      1.0829458    
   1198300   441.31714      27467.981      1.0657422    
   1198400   445.24409      27258.064      1.0739496    
   1198500   439.39085      27411.247      1.067948     
   1198600   445.96567      27382.677      1.0690622    
   1198700   445.89495      27013.581      1.0836692    
   1198800   439.25657      26835.225      1.0908716    
   1198900   445.64659      26822.948      1.0913709    
   1199000   445.29482      26834.236      1.0909118    
   1199100   444.29646      27119.949      1.0794189    
   1199200   443.91839      26979.687      1.0850306    
   1199300   440.88423      27056.75       1.0819402    
   1199400   437.53743      26987.117      1.0847319    
   1199500   436.84696      26795.156      1.0925029    
   1199600   438.1077       26779.488      1.0931421    
   1199700   443.41192      27290.54       1.0726716    
   1199800   444.47272      27229.687      1.0750688    
   1199900   440.12782      27101.645      1.0801479    
   1200000   448.01423      27473.179      1.0655405    
Loop time of 557.776 on 4 procs for 150000 steps with 2808 atoms

Performance: 23.235 ns/day, 1.033 hours/ns, 268.925 timesteps/s
330.4% CPU use with 1 MPI tasks x 4 OpenMP threads

MPI task timing breakdown:
Section |  min time  |  avg time  |  max time  |%varavg| %total
---------------------------------------------------------------
Pair    | 368.27     | 368.27     | 368.27     |   0.0 | 66.02
Bond    | 40.203     | 40.203     | 40.203     |   0.0 |  7.21
Neigh   | 77.085     | 77.085     | 77.085     |   0.0 | 13.82
Comm    | 12.787     | 12.787     | 12.787     |   0.0 |  2.29
Output  | 0.13384    | 0.13384    | 0.13384    |   0.0 |  0.02
Modify  | 57.713     | 57.713     | 57.713     |   0.0 | 10.35
Other   |            | 1.584      |            |       |  0.28

Nlocal:           2808 ave        2808 max        2808 min
Histogram: 1 0 0 0 0 0 0 0 0 0
Nghost:          13382 ave       13382 max       13382 min
Histogram: 1 0 0 0 0 0 0 0 0 0
Neighs:    1.02413e+06 ave 1.02413e+06 max 1.02413e+06 min
Histogram: 1 0 0 0 0 0 0 0 0 0

Total # of neighbors = 1024131
Ave neighs/atom = 364.71902
Ave special neighs/atom = 11.65812
Neighbor list builds = 8973
Dangerous builds = 0
unfix			1

#final
write_data		thermal_expansion_after_glass_transition_no_link.data
System init for write_data ...
Generated 36 of 36 mixed pair_coeff terms from geometric mixing rule
Last active /omp style is angle_style harmonic/omp

#parameter
neighbor		2.0 bin
Total wall time: 1:16:53
