LAMMPS (23 Jun 2022 - Update 1)
OMP_NUM_THREADS environment is not set. Defaulting to 1 thread. (src/comm.cpp:98)
  using 1 OpenMP thread(s) per MPI task
Loaded 1 plugins from C:\Users\divy\AppData\Local\LAMMPS 64-bit 23Jun2022\plugins
package omp 0
using multi-threaded neighbor list subroutines
package omp 4
set 4 OpenMP thread(s) per MPI task
using multi-threaded neighbor list subroutines
# Initialization
units			real
dimension		3
processors		* * *
boundary		p p p
atom_style		full
pair_style		lj/cut 10.0
bond_style		harmonic
angle_style 	harmonic
read_data		no_link_minimize.data
Reading data file ...
  orthogonal box = (30.550832 28.973835 30.392336) to (59.833162 58.256165 59.674666)
  1 by 1 by 1 MPI processor grid
  reading atoms ...
  2808 atoms
  reading velocities ...
  2808 velocities
  scanning bonds ...
  3 = max bonds/atom
  scanning angles ...
  6 = max angles/atom
  reading bonds ...
  2804 bonds
  reading angles ...
  5200 angles
Finding 1-2 1-3 1-4 neighbors ...
  special bond factors lj:    0        0        0       
  special bond factors coul:  0        0        0       
     4 = max # of 1-2 neighbors
     7 = max # of 1-3 neighbors
    14 = max # of 1-4 neighbors
    18 = max # of special neighbors
  special bonds CPU = 0.010 seconds
  read_data CPU = 0.127 seconds

#output

# going from 0-70 in steps of 10

thermo			100
thermo_style	custom step temp vol density


# npt for 150ps
fix			1 all npt temp 273 273 1000 iso 1 1 100
run			150000
Generated 36 of 36 mixed pair_coeff terms from geometric mixing rule
Last active /omp style is angle_style harmonic/omp
Neighbor list info ...
  update every 1 steps, delay 10 steps, check yes
  max neighbors/atom: 2000, page size: 100000
  master list distance cutoff = 12
  ghost atom cutoff = 12
  binsize = 6, bins = 5 5 5
  1 neighbor lists, perpetual/occasional/extra = 1 0 0
  (1) pair lj/cut/omp, perpetual
      attributes: half, newton on, omp
      pair build: half/bin/newton/omp
      stencil: half/bin/3d
      bin: standard
Per MPI rank memory allocation (min/avg/max) = 25.31 | 25.31 | 25.31 Mbytes
   Step          Temp          Volume        Density    
         0   301.96869      25108.276      1.1659018    
       100   307.59284      25166.481      1.1632054    
       200   301.43534      24765.166      1.1820549    
       300   299.94008      25118.494      1.1654276    
       400   288.58162      25323.438      1.1559957    
       500   299.02027      25038.975      1.1691288    
       600   302.20016      25205.36       1.1614112    
       700   296.30805      25076.241      1.1673913    
       800   293.60799      25137.889      1.1645284    
       900   300.28415      24925.705      1.1744416    
      1000   295.46123      25087.191      1.1668818    
      1100   291.51367      25099.787      1.1662962    
      1200   286.03692      25048.315      1.1686928    
      1300   293.57306      25125.056      1.1651232    
      1400   292.16292      25014.172      1.170288     
      1500   289.48421      24962.635      1.1727041    
      1600   290.42492      24818.023      1.1795374    
      1700   285.21849      25076.631      1.1673732    
      1800   282.22725      25181.483      1.1625124    
      1900   279.24022      25287.965      1.1576173    
      2000   281.22469      25183.547      1.1624171    
      2100   286.18378      25057.63       1.1682584    
      2200   287.16254      24951.734      1.1732165    
      2300   277.95869      24911.362      1.1751178    
      2400   280.76186      24814.659      1.1796973    
      2500   280.1464       24939.137      1.1738091    
      2600   278.51682      24926.364      1.1744106    
      2700   277.99942      25035.523      1.16929      
      2800   273.5013       24788.264      1.1809534    
      2900   273.52847      24944.968      1.1735347    
      3000   276.74474      24937.164      1.173902     
      3100   274.53717      24898.784      1.1757115    
      3200   277.43236      24787.605      1.1809848    
      3300   279.28674      24754.835      1.1825482    
      3400   270.94796      24892.756      1.1759962    
      3500   275.57481      24879.322      1.1766312    
      3600   274.54063      24797.658      1.1805061    
      3700   270.31348      24696.672      1.1853332    
      3800   271.3478       24943.4        1.1736085    
      3900   275.16452      25048.764      1.1686719    
      4000   274.02785      25102.813      1.1661556    
      4100   265.75065      24797.906      1.1804943    
      4200   268.83252      24786.308      1.1810466    
      4300   269.79986      24593.744      1.190294     
      4400   271.01089      24786.372      1.1810436    
      4500   269.94588      24914.158      1.174986     
      4600   272.38641      24828.88       1.1790216    
      4700   266.96318      24938.454      1.1738412    
      4800   265.90448      24948.799      1.1733545    
      4900   269.36112      24758.726      1.1823624    
      5000   271.46312      24824.568      1.1792264    
      5100   268.56134      25066.072      1.1678649    
      5200   268.95283      24946.844      1.1734465    
      5300   268.60723      24680.093      1.1861295    
      5400   276.02978      24690.341      1.1856372    
      5500   267.52657      24890.956      1.1760812    
      5600   269.99761      24576.95       1.1911073    
      5700   268.65472      24764.639      1.18208      
      5800   272.73815      24520.541      1.1938475    
      5900   272.2599       24555.631      1.1921415    
      6000   275.26169      24561.26       1.1918683    
      6100   270.90221      24749.309      1.1828122    
      6200   273.50815      24657.106      1.1872353    
      6300   277.06661      24684.691      1.1859086    
      6400   275.44669      24477.781      1.195933     
      6500   275.14659      24508.873      1.1944159    
      6600   273.21427      24803.262      1.1802394    
      6700   277.34852      24785.376      1.1810911    
      6800   275.78591      24891.326      1.1760637    
      6900   268.4648       24831.625      1.1788913    
      7000   282.40045      24776.876      1.1814962    
      7100   279.88894      24596.189      1.1901757    
      7200   269.28198      24796.514      1.1805605    
      7300   278.50018      24782.013      1.1812513    
      7400   277.15041      24758.903      1.1823539    
      7500   281.32048      24547.165      1.1925526    
      7600   275.00176      24309.427      1.2042154    
      7700   276.3779       24392.361      1.2001211    
      7800   280.59689      24598.941      1.1900425    
      7900   278.22498      24860.93       1.1775016    
      8000   277.23433      24858.478      1.1776178    
      8100   280.22129      24733.128      1.1835861    
      8200   279.85819      24691.872      1.1855637    
      8300   283.74343      24511.251      1.1942999    
      8400   282.43251      24825.286      1.1791923    
      8500   278.1302       24855.526      1.1777576    
      8600   275.03293      24773.639      1.1816506    
      8700   269.87729      24947.908      1.1733964    
      8800   275.6538       25001.913      1.1708618    
      8900   271.34113      24591.645      1.1903956    
      9000   276.30808      24629.703      1.1885562    
      9100   270.42354      24628.569      1.1886109    
      9200   276.32428      24554.275      1.1922073    
      9300   275.50026      24585.966      1.1906705    
      9400   267.84987      24616.589      1.1891894    
      9500   272.50485      24799.171      1.1804341    
      9600   268.03139      24848.686      1.1780818    
      9700   271.08304      24579.732      1.1909726    
      9800   269.25194      24588.538      1.190546     
      9900   272.94029      25001.013      1.170904     
     10000   265.87576      24841.753      1.1784106    
     10100   270.01292      24588.816      1.1905325    
     10200   269.25778      24625.775      1.1887458    
     10300   265.25249      24662.793      1.1869615    
     10400   270.0712       24755.983      1.1824934    
     10500   269.66015      24783.365      1.1811869    
     10600   270.81122      24736.179      1.1834401    
     10700   265.35881      24804.643      1.1801737    
     10800   271.51647      24779.219      1.1813845    
     10900   270.46368      24645.756      1.187782     
     11000   270.07553      24873.252      1.1769183    
     11100   270.37252      24815.247      1.1796693    
     11200   266.1714       24898.485      1.1757256    
     11300   269.93887      24675.986      1.1863269    
     11400   272.05327      24580.94       1.190914     
     11500   268.11987      24570.175      1.1914358    
     11600   273.08439      24848.187      1.1781055    
     11700   270.76502      24888.523      1.1761962    
     11800   273.87886      24829.42       1.178996     
     11900   271.31164      24792.219      1.1807651    
     12000   279.49659      24681.052      1.1860834    
     12100   277.09312      24617.378      1.1891512    
     12200   272.80293      24780.427      1.1813269    
     12300   274.84144      24453.91       1.1971004    
     12400   276.06385      24507.023      1.194506     
     12500   278.35684      24829.692      1.1789831    
     12600   279.31876      24753.375      1.182618     
     12700   274.58227      24615.725      1.1892311    
     12800   280.87032      24769.521      1.1818471    
     12900   278.75485      24543.805      1.1927159    
     13000   276.99251      24464.691      1.1965729    
     13100   280.29272      24390.643      1.2002056    
     13200   278.54326      24608.396      1.1895853    
     13300   278.19824      24542.266      1.1927907    
     13400   272.7312       24699.873      1.1851796    
     13500   279.84356      24610.8        1.1894691    
     13600   272.21079      24671.725      1.1865318    
     13700   271.98348      24721.013      1.1841661    
     13800   278.85707      24647.699      1.1876884    
     13900   275.58249      24385.322      1.2004675    
     14000   274.92397      24369.846      1.2012298    
     14100   274.41192      24371.125      1.2011668    
     14200   274.69693      24573.377      1.1912806    
     14300   272.94144      24568.318      1.1915259    
     14400   274.02392      24517.053      1.1940173    
     14500   278.23882      24479.704      1.195839     
     14600   272.84359      24646.247      1.1877584    
     14700   273.91337      24609.595      1.1895273    
     14800   271.39437      24522.8        1.1937375    
     14900   271.35832      24588.478      1.1905489    
     15000   274.65369      24368.257      1.2013082    
     15100   268.09937      24586.641      1.1906379    
     15200   271.66454      24557.883      1.1920321    
     15300   271.77492      24696.746      1.1853297    
     15400   267.37512      24772.491      1.1817054    
     15500   269.99923      24736.659      1.1834171    
     15600   272.16413      24680.027      1.1861327    
     15700   274.51379      24651.281      1.1875158    
     15800   273.50858      24924.314      1.1745072    
     15900   269.34809      24665.285      1.1868416    
     16000   270.50759      24424.608      1.1985366    
     16100   271.86473      24566.442      1.1916169    
     16200   266.95142      24691.356      1.1855884    
     16300   269.24492      24721.785      1.1841291    
     16400   267.02322      24416.162      1.1989512    
     16500   268.19529      24600.425      1.1899707    
     16600   274.28461      24580.23       1.1909484    
     16700   271.27422      24688.905      1.1857061    
     16800   268.45017      24406.838      1.1994092    
     16900   271.14131      24430.718      1.1982368    
     17000   270.92427      24340.105      1.2026976    
     17100   274.71598      24335.24       1.202938     
     17200   269.41         24408.451      1.1993299    
     17300   271.25224      24406.789      1.1994116    
     17400   271.85614      24445.629      1.1975059    
     17500   273.87784      24345.876      1.2024125    
     17600   270.88162      24449.993      1.1972922    
     17700   268.36884      24458.702      1.1968659    
     17800   274.00471      24502.748      1.1947144    
     17900   275.83069      24607.273      1.1896396    
     18000   276.63946      24725.788      1.1839374    
     18100   280.48864      24765.089      1.1820586    
     18200   280.45074      24873.278      1.1769171    
     18300   277.90367      24852.501      1.177901     
     18400   278.86285      24816.87       1.1795922    
     18500   277.20611      24720.064      1.1842116    
     18600   275.31849      24603.884      1.1898035    
     18700   276.5972       24723.14       1.1840643    
     18800   280.39208      24647.395      1.187703     
     18900   279.64867      24575.201      1.1911921    
     19000   274.49227      24828.823      1.1790243    
     19100   279.66711      24782.333      1.1812361    
     19200   279.41519      24816.95       1.1795884    
     19300   278.07073      24898.476      1.175726     
     19400   278.20608      25031.077      1.1694977    
     19500   281.62792      24826.154      1.1791511    
     19600   284.36271      24562.795      1.1917938    
     19700   278.67246      24562.517      1.1918073    
     19800   278.94458      24680.16       1.1861263    
     19900   276.36179      24816.95       1.1795884    
     20000   278.47675      24691.118      1.1855999    
     20100   275.63553      24585.929      1.1906724    
     20200   276.41331      25016.864      1.1701621    
     20300   267.88866      24774.652      1.1816023    
     20400   275.64488      24574.387      1.1912316    
     20500   276.65151      24540.379      1.1928824    
     20600   276.84065      24885.72       1.1763287    
     20700   274.71165      24547.063      1.1925576    
     20800   272.24488      24553.014      1.1922685    
     20900   268.87423      24812.265      1.1798111    
     21000   271.01764      24960.463      1.1728062    
     21100   270.62428      24853.315      1.1778624    
     21200   265.8756       24675.309      1.1863595    
     21300   276.36685      24918.36       1.1747878    
     21400   271.6411       24853.146      1.1778704    
     21500   267.24546      24778.404      1.1814234    
     21600   275.1795       24771.954      1.181731     
     21700   270.71153      24785.113      1.1811036    
     21800   266.57198      24881.089      1.1765476    
     21900   273.29781      24892.447      1.1760108    
     22000   272.12342      24847.299      1.1781476    
     22100   270.9764       24760.96       1.1822557    
     22200   269.2464       24781.477      1.1812769    
     22300   270.13905      24727.549      1.1838531    
     22400   274.91475      24608.505      1.18958      
     22500   272.78929      24673.258      1.1864581    
     22600   272.31606      24589.315      1.1905084    
     22700   274.88043      24581.94       1.1908656    
     22800   272.29837      24540.475      1.1928777    
     22900   269.05484      24582.896      1.1908193    
     23000   271.71485      24588.352      1.190555     
     23100   276.47908      24717.306      1.1843437    
     23200   275.31562      24497.51       1.1949698    
     23300   267.90223      24382.711      1.200596     
     23400   272.28716      24405.866      1.199457     
     23500   275.61901      24660.929      1.1870512    
     23600   269.8035       24547.652      1.192529     
     23700   275.68738      24650.257      1.1875651    
     23800   270.4655       24632.822      1.1884057    
     23900   272.77227      24679.492      1.1861584    
     24000   277.75623      24694.803      1.1854229    
     24100   279.91652      24696.911      1.1853218    
     24200   276.34107      24666.279      1.1867937    
     24300   278.45649      24597.802      1.1900976    
     24400   277.17967      24676.142      1.1863194    
     24500   275.16951      24707.933      1.184793     
     24600   275.9128       24415.524      1.1989825    
     24700   287.72899      24548.204      1.1925022    
     24800   277.01627      24631.418      1.1884734    
     24900   277.48204      24604.253      1.1897856    
     25000   284.21467      24706.739      1.1848503    
     25100   280.10515      24723.915      1.1840271    
     25200   279.90341      24555.884      1.1921292    
     25300   283.33107      24646.94       1.187725     
     25400   282.38428      24799.806      1.1804038    
     25500   276.85623      24911.289      1.1751213    
     25600   281.09337      24933.46       1.1740764    
     25700   270.20904      24942.706      1.1736412    
     25800   279.81246      24777.567      1.1814633    
     25900   276.46465      24605.921      1.1897049    
     26000   275.889        24563.35       1.1917668    
     26100   273.7774       24664.508      1.186879     
     26200   273.94235      24581.394      1.190892     
     26300   276.29498      24623.919      1.1888354    
     26400   278.77683      24502.781      1.1947128    
     26500   274.72915      24660.591      1.1870675    
     26600   274.12709      24865.679      1.1772768    
     26700   277.31895      24592.519      1.1903533    
     26800   271.65192      24580.069      1.1909562    
     26900   273.04569      24584.048      1.1907634    
     27000   274.20788      24661.61       1.1870185    
     27100   272.55534      24703.001      1.1850296    
     27200   272.55132      24731.51       1.1836635    
     27300   274.97841      24699.758      1.1851851    
     27400   274.77791      24426.158      1.1984605    
     27500   275.50061      24690.015      1.1856528    
     27600   272.24329      24646.373      1.1877523    
     27700   269.31991      24878.424      1.1766736    
     27800   278.99202      24578.909      1.1910124    
     27900   277.61307      24592.587      1.19035      
     28000   273.20308      24466.496      1.1964846    
     28100   271.49061      24605.583      1.1897213    
     28200   271.68004      24596.226      1.1901739    
     28300   270.77993      24427.412      1.198399     
     28400   273.98443      24588.56       1.190545     
     28500   270.01104      24486.174      1.1955231    
     28600   271.51604      24637.72       1.1881694    
     28700   273.90769      24732.331      1.1836242    
     28800   274.56404      24536.71       1.1930608    
     28900   265.57816      24815.463      1.1796591    
     29000   268.93393      24559.242      1.1919662    
     29100   276.81625      24544.38       1.1926879    
     29200   270.09003      24684.272      1.1859287    
     29300   270.02053      24647.452      1.1877003    
     29400   267.98714      24816.416      1.1796138    
     29500   270.44067      24666.833      1.1867671    
     29600   270.643        24657.208      1.1872304    
     29700   272.61654      24775.973      1.1815393    
     29800   274.80745      24647.549      1.1876956    
     29900   268.16681      24810.496      1.1798952    
     30000   269.0918       24749.546      1.1828009    
     30100   269.78033      24670.427      1.1865942    
     30200   270.07289      24768.328      1.181904     
     30300   265.24929      24648.108      1.1876687    
     30400   268.12493      24606.757      1.1896645    
     30500   268.88492      24376.508      1.2009015    
     30600   264.93072      24649.837      1.1875854    
     30700   266.65796      24722.555      1.1840923    
     30800   273.21013      24619.715      1.1890384    
     30900   272.21069      24681.012      1.1860853    
     31000   270.84373      24764.016      1.1821098    
     31100   270.39346      24795.839      1.1805927    
     31200   271.23098      25000.09       1.1709472    
     31300   271.65342      24846.675      1.1781772    
     31400   271.1738       24690.237      1.1856422    
     31500   277.90253      24887.325      1.1762528    
     31600   270.68121      24868.869      1.1771257    
     31700   275.4224       24844.754      1.1782683    
     31800   277.16854      24794.968      1.1806342    
     31900   280.4804       24625.103      1.1887782    
     32000   273.99692      24761.221      1.1822432    
     32100   276.6616       24579.053      1.1910055    
     32200   277.41066      24683.854      1.1859488    
     32300   277.63791      24454.538      1.1970697    
     32400   278.71718      24450.501      1.1972673    
     32500   279.91577      24747.869      1.1828811    
     32600   275.3201       24676.301      1.1863117    
     32700   274.468        24806.235      1.1800979    
     32800   273.70851      24974.362      1.1721535    
     32900   277.70585      24689.576      1.1856739    
     33000   274.40256      24758.082      1.1823931    
     33100   273.89768      24684.234      1.1859305    
     33200   274.98462      24590.512      1.1904505    
     33300   274.06325      24753.723      1.1826013    
     33400   276.34595      24555.924      1.1921272    
     33500   273.96632      25015.818      1.170211     
     33600   270.99714      24697.344      1.185301     
     33700   278.57834      24860.6        1.1775173    
     33800   271.97758      24953.456      1.1731355    
     33900   269.84136      24677.869      1.1862364    
     34000   274.43086      24560.034      1.1919278    
     34100   275.42041      24421.55       1.1986866    
     34200   274.25437      24701.118      1.1851199    
     34300   273.23768      24706.831      1.1848459    
     34400   273.67617      24690.997      1.1856056    
     34500   277.80619      24497.422      1.1949742    
     34600   271.2354       24726.636      1.1838968    
     34700   272.71502      24684.039      1.1859399    
     34800   268.98534      24701.686      1.1850926    
     34900   269.28684      24423.33       1.1985993    
     35000   267.98597      24443.89       1.1975911    
     35100   275.99624      24509.223      1.1943988    
     35200   272.87264      24498.625      1.1949155    
     35300   275.49752      24538.77       1.1929606    
     35400   265.96124      24670.264      1.1866021    
     35500   274.7656       24692.525      1.1855323    
     35600   270.42635      24605.485      1.189726     
     35700   269.94169      24669.946      1.1866174    
     35800   269.32053      24835.451      1.1787096    
     35900   267.69794      24774.694      1.1816003    
     36000   267.69659      24791.793      1.1807853    
     36100   271.97779      24709.347      1.1847252    
     36200   266.1174       24604.334      1.1897817    
     36300   269.35968      24609.757      1.1895195    
     36400   268.94435      24512.177      1.1942548    
     36500   269.17118      24790.372      1.180853     
     36600   273.59372      24780.673      1.1813152    
     36700   272.91835      24592.002      1.1903783    
     36800   273.61268      24675.78       1.1863368    
     36900   271.22606      24822.202      1.1793388    
     37000   274.34683      24708.428      1.1847693    
     37100   269.40894      24788.935      1.1809215    
     37200   271.92193      24959.022      1.1728739    
     37300   269.77475      24897.076      1.1757921    
     37400   267.89795      24802.797      1.1802615    
     37500   271.14747      24806.37       1.1800915    
     37600   275.61655      24792.422      1.1807554    
     37700   268.60512      24807.95       1.1800163    
     37800   277.1421       24821.688      1.1793632    
     37900   273.85066      24753.84       1.1825958    
     38000   274.38952      24656.672      1.1872561    
     38100   274.20572      24837.617      1.1786069    
     38200   275.70184      24949.172      1.173337     
     38300   274.87464      24805.926      1.1801126    
     38400   275.35862      24542.991      1.1927554    
     38500   279.1277       24740.099      1.1832526    
     38600   274.55909      24925.248      1.1744632    
     38700   272.39986      24969.796      1.1723679    
     38800   278.23594      24742.21       1.1831516    
     38900   278.15317      24628.343      1.1886218    
     39000   276.16026      24506.281      1.1945422    
     39100   278.13384      24791.06       1.1808203    
     39200   278.09038      24888.734      1.1761862    
     39300   280.24495      24864.751      1.1773207    
     39400   274.22736      24715.383      1.1844358    
     39500   276.52806      24539.135      1.1929428    
     39600   274.58949      24732.232      1.1836289    
     39700   276.55443      24550.168      1.1924067    
     39800   276.48176      24548.517      1.1924869    
     39900   274.95562      24940.844      1.1737287    
     40000   267.23087      24871.839      1.1769852    
     40100   272.33159      24866.239      1.1772503    
     40200   272.87217      24842.456      1.1783773    
     40300   271.13641      24966.655      1.1725153    
     40400   270.9208       24836.106      1.1786786    
     40500   277.00679      24750.291      1.1827653    
     40600   274.93674      24834.512      1.1787542    
     40700   270.14876      24733.157      1.1835847    
     40800   273.58507      24650.909      1.1875337    
     40900   275.01726      24597.095      1.1901318    
     41000   275.32336      24606.015      1.1897004    
     41100   271.14525      24618.9        1.1890777    
     41200   271.89502      24755.344      1.1825239    
     41300   270.18189      24745.927      1.1829739    
     41400   271.75031      24744.371      1.1830483    
     41500   268.1979       24980.764      1.1718531    
     41600   264.42215      24891.395      1.1760605    
     41700   271.16432      24750.722      1.1827447    
     41800   275.86065      24610.035      1.1895061    
     41900   276.64344      24682.034      1.1860362    
     42000   273.01147      24692.806      1.1855188    
     42100   271.5589       24521.58       1.1937969    
     42200   270.49907      24510.979      1.1943132    
     42300   269.01302      24642.681      1.1879303    
     42400   273.21651      24702.506      1.1850533    
     42500   274.59117      24679.418      1.1861619    
     42600   269.19372      24581.789      1.1908729    
     42700   273.41246      24637.1        1.1881994    
     42800   273.70322      24763.777      1.1821212    
     42900   278.46664      24771.119      1.1817708    
     43000   272.4633       24724.706      1.1839893    
     43100   266.46178      24542.836      1.192763     
     43200   271.48078      24624.491      1.1888078    
     43300   270.12057      24984.92       1.1716582    
     43400   277.61501      24705.058      1.1849309    
     43500   270.61997      24730.176      1.1837274    
     43600   269.81583      25021.112      1.1699634    
     43700   265.56983      24928.011      1.174333     
     43800   267.53736      24804.465      1.1801821    
     43900   272.41859      24851.479      1.1779495    
     44000   264.89198      24690.363      1.1856361    
     44100   274.93699      24929.394      1.1742678    
     44200   267.29626      24763.686      1.1821255    
     44300   270.48644      24682.724      1.1860031    
     44400   273.68192      24659.734      1.1871087    
     44500   270.34876      24793.299      1.1807136    
     44600   271.14098      24925.244      1.1744633    
     44700   269.53197      25024.568      1.1698018    
     44800   277.02426      24797.242      1.1805259    
     44900   277.75433      24945.126      1.1735273    
     45000   273.66692      24828.144      1.1790566    
     45100   269.84237      24828.528      1.1790383    
     45200   276.56646      24681.032      1.1860844    
     45300   276.58369      24699.285      1.1852078    
     45400   280.73824      24574.055      1.1912477    
     45500   273.15831      24767.309      1.1819526    
     45600   274.82715      24741.613      1.1831802    
     45700   275.36088      24395.133      1.1999847    
     45800   277.25383      24457.003      1.196949     
     45900   276.49819      24559.957      1.1919315    
     46000   278.89666      24839.662      1.1785098    
     46100   278.45263      24785.079      1.1811052    
     46200   278.03237      24780.407      1.1813279    
     46300   277.33305      24807.644      1.1800309    
     46400   276.97501      24686.537      1.1858199    
     46500   276.2508       24584.186      1.1907568    
     46600   273.76213      24697.601      1.1852887    
     46700   276.18336      25070.624      1.1676528    
     46800   270.35273      24819.348      1.1794744    
     46900   270.42483      24659.301      1.1871296    
     47000   277.58963      24650.687      1.1875444    
     47100   271.40571      24684.862      1.1859003    
     47200   275.46448      24934.318      1.174036     
     47300   276.6112       24763.143      1.1821515    
     47400   268.11922      24812.716      1.1797897    
     47500   269.94329      24751.302      1.182717     
     47600   271.86386      24687.125      1.1857916    
     47700   275.43959      24641.261      1.1879987    
     47800   274.9072       24610.067      1.1895045    
     47900   276.59987      24677.737      1.1862427    
     48000   269.53325      24732.399      1.183621     
     48100   272.15394      24812.703      1.1797903    
     48200   267.61998      24650.082      1.1875736    
     48300   269.69027      24565.191      1.1916775    
     48400   270.72727      24613.47       1.1893401    
     48500   271.80213      24697.645      1.1852865    
     48600   269.60973      24879.969      1.1766006    
     48700   263.76798      25063.069      1.1680049    
     48800   270.57118      24807.368      1.180044     
     48900   268.25498      24886.369      1.176298     
     49000   267.59822      24935.441      1.1739831    
     49100   272.41192      24782.303      1.1812375    
     49200   270.58966      24887.877      1.1762267    
     49300   269.36192      24899.043      1.1756992    
     49400   267.12446      24609.011      1.1895556    
     49500   270.80114      24738.73       1.1833181    
     49600   268.75831      24742.696      1.1831284    
     49700   272.51923      24682.581      1.1860099    
     49800   272.46179      24850.21       1.1780096    
     49900   273.74927      24765.555      1.1820363    
     50000   273.53485      24653.193      1.1874237    
     50100   277.86105      24664.779      1.1868659    
     50200   277.22572      24906.264      1.1753584    
     50300   276.74758      24741.045      1.1832073    
     50400   272.22403      24786.545      1.1810353    
     50500   274.37942      24698.245      1.1852577    
     50600   271.62361      24719.053      1.18426      
     50700   272.34983      24558.954      1.1919801    
     50800   281.33925      24442.864      1.1976414    
     50900   271.37123      24708.931      1.1847451    
     51000   272.03558      24704.061      1.1849787    
     51100   269.77481      24897.722      1.1757616    
     51200   269.20195      24930.439      1.1742186    
     51300   272.8066       24422.834      1.1986236    
     51400   265.52902      24713.337      1.1845339    
     51500   270.25571      24532.249      1.1932777    
     51600   272.06317      24824.011      1.1792529    
     51700   272.1184       24840.794      1.1784561    
     51800   274.0354       24810.181      1.1799102    
     51900   277.18325      24823.766      1.1792645    
     52000   268.27741      24930.748      1.1742041    
     52100   270.41376      24877.68       1.1767089    
     52200   271.84039      24920.437      1.1746899    
     52300   275.08777      24541.841      1.1928113    
     52400   274.54668      24797.135      1.180531     
     52500   277.90728      24863.042      1.1774016    
     52600   278.22096      24680.808      1.1860951    
     52700   276.7648       24825.83       1.1791665    
     52800   274.72631      24938.646      1.1738322    
     52900   267.80679      24820.36       1.1794263    
     53000   277.67699      24938.243      1.1738512    
     53100   275.48027      24847.338      1.1781457    
     53200   277.44481      24456.843      1.1969569    
     53300   270.57482      24678.236      1.1862187    
     53400   274.42271      24730.413      1.183716     
     53500   270.50324      25028.227      1.1696308    
     53600   269.6831       24892.248      1.1760202    
     53700   273.18905      24620.993      1.1889767    
     53800   274.72857      24880.001      1.1765991    
     53900   274.72085      24936.204      1.1739471    
     54000   269.93168      25009.264      1.1705177    
     54100   278.15287      24861.464      1.1774764    
     54200   275.49063      24865.709      1.1772753    
     54300   275.922        24727.676      1.183847     
     54400   277.65305      24702.743      1.1850419    
     54500   279.5726       24902.224      1.1755491    
     54600   281.25377      24849.907      1.1780239    
     54700   274.86102      24858.187      1.1776316    
     54800   277.97587      24875.77       1.1767992    
     54900   275.95941      24866.47       1.1772393    
     55000   274.39597      24916.891      1.1748571    
     55100   275.26727      24745.403      1.182999     
     55200   271.94147      24677.374      1.1862602    
     55300   277.16481      24896.156      1.1758356    
     55400   277.80483      25001.361      1.1708877    
     55500   278.38464      24674.152      1.1864151    
     55600   271.42442      24639.995      1.1880598    
     55700   274.52354      24837.538      1.1786106    
     55800   277.80216      24768.845      1.1818793    
     55900   272.47818      24528.26       1.1934717    
     56000   275.74967      24863.218      1.1773933    
     56100   272.9633       24964.32       1.172625     
     56200   271.43488      24936.386      1.1739386    
     56300   269.41193      25188.836      1.162173     
     56400   272.28521      24940.804      1.1737307    
     56500   276.65066      24793.591      1.1806997    
     56600   271.62599      24734.503      1.1835203    
     56700   269.32176      24665.489      1.1868318    
     56800   269.82089      24873.559      1.1769038    
     56900   265.12613      24718.873      1.1842686    
     57000   272.77269      24768.599      1.1818911    
     57100   269.00482      24718.281      1.184297     
     57200   268.01246      24805.893      1.1801142    
     57300   270.9571       24800.575      1.1803672    
     57400   262.79535      24735.121      1.1834907    
     57500   266.2516       24742.731      1.1831267    
     57600   273.19034      24711.989      1.1845985    
     57700   273.64793      24712.616      1.1845685    
     57800   269.16747      24772.218      1.1817184    
     57900   272.01054      25024.491      1.1698055    
     58000   271.75368      24780.251      1.1813353    
     58100   271.40579      24849.952      1.1780218    
     58200   270.58656      24787.971      1.1809674    
     58300   273.50701      24864.732      1.1773216    
     58400   275.28332      24766.743      1.1819796    
     58500   274.61937      24639.321      1.1880922    
     58600   275.22476      24914.342      1.1749773    
     58700   274.40186      24928.389      1.1743152    
     58800   277.55502      24581.464      1.1908886    
     58900   276.38297      24803.289      1.1802381    
     59000   275.79856      24946.599      1.173458     
     59100   274.03904      24813.308      1.1797615    
     59200   275.58211      24792.363      1.1807582    
     59300   276.69006      24815.988      1.1796341    
     59400   276.22197      24710.329      1.1846781    
     59500   277.65018      24687.5        1.1857736    
     59600   278.15105      24598.667      1.1900558    
     59700   283.5061       24771.199      1.181767     
     59800   279.83929      24862.995      1.1774038    
     59900   281.08705      24788.399      1.180947     
     60000   279.46592      24620.858      1.1889832    
     60100   275.55915      24728.607      1.1838025    
     60200   275.24408      24683.168      1.1859817    
     60300   270.15049      24651.377      1.1875112    
     60400   281.93304      24704.295      1.1849675    
     60500   278.73918      24667.347      1.1867424    
     60600   273.26988      24822.974      1.1793021    
     60700   274.48103      24832.03       1.1788721    
     60800   274.46067      24671.29       1.1865527    
     60900   276.03439      24655.893      1.1872937    
     61000   272.27717      24628.039      1.1886365    
     61100   271.63431      24729.634      1.1837533    
     61200   273.52564      24861.87       1.1774571    
     61300   274.70004      24751.676      1.1826992    
     61400   277.49283      24688.249      1.1857376    
     61500   273.01709      24561.997      1.1918325    
     61600   276.11458      24727.384      1.183861     
     61700   274.25976      24801.456      1.1803253    
     61800   277.33145      24806.078      1.1801054    
     61900   279.99564      24550.897      1.1923714    
     62000   275.87503      24687.98       1.1857505    
     62100   274.97724      24613.175      1.1893543    
     62200   273.32159      24905.594      1.17539      
     62300   272.52667      24723.563      1.184044     
     62400   273.22582      24854.829      1.1777907    
     62500   271.91862      24548.515      1.1924871    
     62600   266.70847      24733.649      1.1835611    
     62700   273.00045      24697.141      1.1853107    
     62800   272.85937      24641.674      1.1879788    
     62900   274.10684      24647.182      1.1877133    
     63000   266.48411      24704.163      1.1849738    
     63100   275.15882      24874.457      1.1768613    
     63200   271.29009      24793.623      1.1806982    
     63300   273.10793      24766.873      1.1819734    
     63400   270.94211      24532.233      1.1932785    
     63500   268.90593      24515.325      1.1941015    
     63600   272.08407      24712.364      1.1845806    
     63700   272.53252      24490.816      1.1952965    
     63800   272.66984      24359.069      1.2017613    
     63900   271.84865      24599.754      1.1900032    
     64000   269.81089      24709.241      1.1847303    
     64100   274.04252      24714.914      1.1844583    
     64200   271.13973      24571.828      1.1913557    
     64300   268.97433      24576.901      1.1911097    
     64400   273.02073      24643.933      1.1878699    
     64500   272.3819       24574.144      1.1912434    
     64600   275.55003      24486.431      1.1955105    
     64700   274.76603      24382.484      1.2006072    
     64800   276.0111       24663.938      1.1869064    
     64900   273.27516      24720.792      1.1841767    
     65000   272.37092      24662.413      1.1869798    
     65100   272.17318      24870.426      1.1770521    
     65200   268.51262      24663.846      1.1869108    
     65300   276.7136       24441.471      1.1977097    
     65400   275.34567      24503.618      1.194672     
     65500   269.31464      24545.991      1.1926097    
     65600   274.16045      24576.972      1.1911063    
     65700   270.58972      24603.632      1.1898156    
     65800   272.16         24484.655      1.1955973    
     65900   272.48422      24402.981      1.1995988    
     66000   272.95961      24323.353      1.2035259    
     66100   266.93754      24579.961      1.1909614    
     66200   271.62159      24736.17       1.1834405    
     66300   266.06581      24741.827      1.18317      
     66400   269.26446      24972.32       1.1722493    
     66500   273.26529      24587.518      1.1905954    
     66600   270.25814      24666.524      1.186782     
     66700   270.75361      24774.076      1.1816298    
     66800   274.66928      24689.306      1.1856869    
     66900   276.49871      24723.257      1.1840587    
     67000   271.50586      24822.067      1.1793452    
     67100   269.57442      24661.069      1.1870445    
     67200   272.27327      24763.063      1.1821553    
     67300   275.41158      24821.134      1.1793895    
     67400   273.67979      24647.131      1.1877158    
     67500   273.18814      24651.312      1.1875143    
     67600   269.55589      24778.18       1.181434     
     67700   273.63717      24867.321      1.177199     
     67800   272.94091      24979.198      1.1719266    
     67900   269.88499      24951.698      1.1732182    
     68000   270.96495      25039.289      1.1691141    
     68100   274.65642      24998.736      1.1710106    
     68200   270.01267      25129.642      1.1649106    
     68300   271.8262       24991.493      1.17135      
     68400   270.75184      24937.149      1.1739027    
     68500   276.84598      24685.708      1.1858597    
     68600   274.79597      24809.019      1.1799655    
     68700   269.88459      24895.512      1.175866     
     68800   269.05968      25085.326      1.1669685    
     68900   276.04495      24875.813      1.1767972    
     69000   273.52324      24810.797      1.1798809    
     69100   273.40295      24903.378      1.1754946    
     69200   272.08284      24867.584      1.1771866    
     69300   274.64706      24849.637      1.1780367    
     69400   275.30597      25072.424      1.167569     
     69500   274.93738      25177.222      1.1627091    
     69600   279.77507      25000.356      1.1709347    
     69700   279.66639      25135.498      1.1646392    
     69800   279.02287      24943.365      1.1736101    
     69900   279.47834      24915.395      1.1749276    
     70000   273.65249      25026.106      1.16973      
     70100   280.0167       24994.683      1.1712005    
     70200   277.48927      24858.688      1.1776078    
     70300   284.77213      24726.646      1.1838963    
     70400   281.35097      24820.676      1.1794113    
     70500   275.74963      24921.531      1.1746384    
     70600   280.63458      24892.591      1.176004     
     70700   276.70973      24620.034      1.189023     
     70800   275.76133      24751.246      1.1827197    
     70900   281.07704      24907.309      1.1753091    
     71000   279.687        24933.99       1.1740514    
     71100   273.61786      24849.096      1.1780624    
     71200   271.52216      24805.118      1.180151     
     71300   274.41659      24631.779      1.188456     
     71400   275.57471      24759.375      1.1823314    
     71500   277.23539      24906.873      1.1753297    
     71600   274.41101      25179.285      1.1626139    
     71700   271.66479      25004.706      1.1707311    
     71800   273.88625      24867.59       1.1771863    
     71900   273.0075       24751.896      1.1826886    
     72000   276.74882      24701.006      1.1851253    
     72100   275.61315      24768.859      1.1818787    
     72200   271.56073      24953.356      1.1731402    
     72300   264.76665      24981.786      1.1718052    
     72400   263.53951      24787.257      1.1810014    
     72500   268.42794      24902.304      1.1755453    
     72600   273.21576      25058.598      1.1682132    
     72700   270.43543      24570.795      1.1914057    
     72800   272.12501      24675.547      1.186348     
     72900   269.20778      24853.638      1.1778471    
     73000   271.65632      24576.168      1.1911453    
     73100   272.03428      24532.637      1.1932588    
     73200   271.54008      24657.239      1.1872289    
     73300   272.65852      24587.079      1.1906167    
     73400   268.48039      24872.5        1.1769539    
     73500   273.00302      24863.406      1.1773844    
     73600   267.12506      24754.18       1.1825795    
     73700   270.735        24753.422      1.1826157    
     73800   273.09055      24796.195      1.1805757    
     73900   267.53931      24879.273      1.1766335    
     74000   268.86297      24895.658      1.1758591    
     74100   272.69274      24573.807      1.1912597    
     74200   279.3128       24572.817      1.1913077    
     74300   273.38111      24678.614      1.1862006    
     74400   268.17676      24803.778      1.1802148    
     74500   269.72281      24888.66       1.1761897    
     74600   268.35296      24751.697      1.1826981    
     74700   271.73878      24751.662      1.1826998    
     74800   277.60403      24637.448      1.1881826    
     74900   276.52047      24878.422      1.1766738    
     75000   279.54557      25052.541      1.1684957    
     75100   278.46263      25015.596      1.1702214    
     75200   276.01709      24951.453      1.1732297    
     75300   277.28343      25090.932      1.1667078    
     75400   279.79331      24927.18       1.1743722    
     75500   273.99032      24760.416      1.1822817    
     75600   271.85057      25039.476      1.1691054    
     75700   277.36036      24864.129      1.1773502    
     75800   281.84548      24757.074      1.1824413    
     75900   280.68354      25064.03       1.1679601    
     76000   276.70803      25125.241      1.1651146    
     76100   276.28109      25058.976      1.1681956    
     76200   275.28162      25018.554      1.1700831    
     76300   278.71461      24744.11       1.1830608    
     76400   275.48858      24965.984      1.1725469    
     76500   275.6932       24795.977      1.1805861    
     76600   273.20879      24931.047      1.17419      
     76700   272.31196      25043.945      1.1688967    
     76800   278.63112      25129.744      1.1649059    
     76900   277.15318      24778.281      1.1814292    
     77000   270.83164      25040.482      1.1690584    
     77100   270.74711      25058.654      1.1682106    
     77200   275.28988      25081.182      1.1671613    
     77300   276.90657      25025.104      1.1697768    
     77400   280.44112      24946.803      1.1734484    
     77500   279.24686      24841.15       1.1784392    
     77600   273.65353      24780.317      1.1813322    
     77700   274.13894      24952.06       1.1732012    
     77800   278.05044      24680.13       1.1861277    
     77900   277.65069      24759.804      1.1823109    
     78000   275.58043      24644.671      1.1878343    
     78100   279.9963       24501.208      1.1947895    
     78200   276.61144      24713.003      1.1845499    
     78300   273.32646      24859.316      1.1775781    
     78400   274.66159      24696.142      1.1853586    
     78500   271.00106      24638.761      1.1881193    
     78600   279.84458      24472.411      1.1961954    
     78700   278.58295      24512.015      1.1942628    
     78800   274.50887      24392.736      1.2001026    
     78900   276.22939      24358.777      1.2017757    
     79000   275.5269       24607.547      1.1896263    
     79100   267.05883      24668.036      1.1867093    
     79200   269.81139      24745.338      1.1830021    
     79300   271.41401      24913.862      1.1749999    
     79400   264.30272      24996.098      1.1711342    
     79500   269.63603      25087.132      1.1668845    
     79600   274.68361      24734.702      1.1835107    
     79700   280.87609      24580.265      1.1909467    
     79800   271.26771      24848.595      1.1780862    
     79900   269.01494      24799.561      1.1804155    
     80000   267.59885      24855.872      1.1777413    
     80100   264.2181       24739.453      1.1832835    
     80200   274.99598      24734.546      1.1835182    
     80300   271.40576      24632.059      1.1884425    
     80400   268.0745       24460.022      1.1968013    
     80500   268.60956      24336.695      1.2028661    
     80600   268.19441      24576.369      1.1911355    
     80700   274.8615       24640.79       1.1880214    
     80800   270.69751      24522.651      1.1937447    
     80900   274.79863      24656.211      1.1872784    
     81000   265.3466       24591.645      1.1903956    
     81100   269.05216      24479.461      1.1958509    
     81200   267.81865      24480.63       1.1957938    
     81300   276.54051      24608.234      1.1895931    
     81400   271.28827      24711.952      1.1846003    
     81500   274.77792      24488.869      1.1953915    
     81600   273.44478      24417.434      1.1988887    
     81700   277.24293      24579.115      1.1910025    
     81800   269.0726       24751.621      1.1827018    
     81900   274.63891      24623.298      1.1888654    
     82000   271.95747      24883.45       1.176436     
     82100   270.89126      24682.083      1.1860339    
     82200   277.44216      24617.295      1.1891552    
     82300   271.88632      24486.82       1.1954915    
     82400   279.87275      24646.173      1.1877619    
     82500   276.82771      24686.755      1.1858094    
     82600   274.14321      24572.347      1.1913305    
     82700   273.25269      24630.849      1.1885009    
     82800   279.11942      24541.176      1.1928436    
     82900   276.94186      24429.012      1.1983205    
     83000   278.62679      24756.202      1.1824829    
     83100   280.83586      24684.098      1.185937     
     83200   280.28626      24666.698      1.1867736    
     83300   278.27505      24605.442      1.1897281    
     83400   277.32881      24609.224      1.1895453    
     83500   275.94516      24739.024      1.183304     
     83600   278.23396      24779.869      1.1813535    
     83700   274.9137       24880.865      1.1765582    
     83800   275.84249      24795.459      1.1806108    
     83900   276.28856      24725.269      1.1839623    
     84000   277.45526      24713.4        1.1845309    
     84100   274.19184      24498.611      1.1949162    
     84200   276.30506      24638.781      1.1881183    
     84300   278.04921      24723.928      1.1840265    
     84400   275.50765      24575.677      1.1911691    
     84500   276.57296      24725.391      1.1839564    
     84600   275.68692      24395.425      1.1999703    
     84700   270.81148      24617.492      1.1891457    
     84800   272.96411      24867.407      1.1771949    
     84900   272.1883       24639.305      1.188093     
     85000   274.0104       24647.748      1.187686     
     85100   274.78017      24465.887      1.1965144    
     85200   273.62184      24401.233      1.1996847    
     85300   275.04138      24491.129      1.1952812    
     85400   273.52625      24464.008      1.1966063    
     85500   272.72393      24563.533      1.1917579    
     85600   269.2705       24585.676      1.1906846    
     85700   270.40408      24727.786      1.1838418    
     85800   274.8749       24676.383      1.1863078    
     85900   274.87109      24687.569      1.1857703    
     86000   274.24353      24539.699      1.1929154    
     86100   275.37526      24496.462      1.195021     
     86200   275.69075      24577.819      1.1910653    
     86300   271.2611       24730.663      1.1837041    
     86400   270.74056      24581.188      1.190902     
     86500   276.43969      24584.964      1.1907191    
     86600   269.39948      24751.46       1.1827095    
     86700   273.10372      24631.893      1.1884505    
     86800   273.14673      24654.755      1.1873485    
     86900   277.72213      24772.498      1.181705     
     87000   273.69776      24440.928      1.1977363    
     87100   279.38682      24422.896      1.1986206    
     87200   267.54343      24341.922      1.2026078    
     87300   269.56055      24509.628      1.1943791    
     87400   274.39616      24386.828      1.2003934    
     87500   276.21131      24166.78       1.2113234    
     87600   272.23728      24337.65       1.2028189    
     87700   275.98829      24294.698      1.2049455    
     87800   270.18713      24506.098      1.1945511    
     87900   277.05082      24611.44       1.1894382    
     88000   274.49887      24511.678      1.1942791    
     88100   273.74809      24418.389      1.1988418    
     88200   274.30728      24362.366      1.2015986    
     88300   272.47432      24603.935      1.189801     
     88400   275.34025      24616.798      1.1891793    
     88500   272.0995       24465.247      1.1965457    
     88600   273.27505      24539.249      1.1929373    
     88700   274.55094      24347.071      1.2023535    
     88800   270.94376      24549.739      1.1924276    
     88900   267.04092      24466.27       1.1964957    
     89000   279.03504      24701.536      1.1850998    
     89100   275.08705      24600.827      1.1899513    
     89200   274.70028      24795.924      1.1805887    
     89300   271.75148      24748.502      1.1828508    
     89400   281.96446      24536.647      1.1930638    
     89500   276.7479       24531.418      1.1933181    
     89600   273.56061      24653.764      1.1873962    
     89700   272.99918      24633.964      1.1883506    
     89800   280.66517      24659.54       1.1871181    
     89900   272.8992       24593.504      1.1903056    
     90000   277.18953      24590.933      1.1904301    
     90100   279.42593      24575.637      1.191171     
     90200   280.15961      24587.542      1.1905943    
     90300   279.18394      24711.879      1.1846038    
     90400   277.01539      24713.078      1.1845463    
     90500   271.59267      24628.229      1.1886273    
     90600   275.17229      24858.723      1.1776062    
     90700   277.22693      24955.835      1.1730237    
     90800   274.82654      24943.661      1.1735962    
     90900   274.77884      25002.834      1.1708187    
     91000   278.60133      24626.985      1.1886874    
     91100   276.29188      24727.466      1.1838571    
     91200   279.53922      24603.384      1.1898276    
     91300   277.52292      24585.996      1.1906691    
     91400   279.55182      24569.154      1.1914853    
     91500   282.88418      24688.088      1.1857454    
     91600   274.06135      24633.569      1.1883696    
     91700   278.06556      24596.775      1.1901473    
     91800   277.55916      24476.939      1.1959741    
     91900   273.46513      24443.407      1.1976148    
     92000   274.75038      24550.218      1.1924043    
     92100   273.97464      24307.459      1.2043129    
     92200   270.14126      24555.444      1.1921505    
     92300   270.23259      24760.139      1.1822949    
     92400   276.10617      24889.572      1.1761466    
     92500   268.50238      24921.718      1.1746295    
     92600   263.57211      24739.545      1.1832791    
     92700   271.34068      24712.221      1.1845874    
     92800   271.71142      24656.289      1.1872746    
     92900   271.83975      24693.649      1.1854783    
     93000   269.96064      24649.583      1.1875976    
     93100   266.18227      24558.759      1.1919896    
     93200   270.89374      24475.641      1.1960376    
     93300   270.10323      24447.177      1.1974301    
     93400   274.70883      24475.229      1.1960577    
     93500   271.79445      24629.665      1.188558     
     93600   268.52664      24590.338      1.1904589    
     93700   273.65447      24749.544      1.182801     
     93800   267.79299      24562.129      1.1918261    
     93900   271.90019      24366.895      1.2013753    
     94000   274.89663      24530.187      1.193378     
     94100   271.41313      24503.523      1.1946766    
     94200   272.92798      24501.787      1.1947613    
     94300   277.5237       24384.296      1.200518     
     94400   273.5014       24606.602      1.189672     
     94500   269.46102      24553.909      1.1922251    
     94600   270.37514      24542.638      1.1927726    
     94700   272.18315      24513.349      1.1941977    
     94800   273.10525      24624.757      1.1887949    
     94900   272.01435      24847.98       1.1781153    
     95000   274.44411      24926.088      1.1744236    
     95100   277.19398      25062.752      1.1680196    
     95200   276.08122      24739.512      1.1832807    
     95300   277.13488      24677.002      1.1862781    
     95400   270.78845      24766.361      1.1819979    
     95500   272.66192      24757.908      1.1824014    
     95600   278.55982      24478.53       1.1958964    
     95700   283.5127       24531.941      1.1932927    
     95800   275.76671      24437.387      1.1979098    
     95900   281.58342      24499.88       1.1948543    
     96000   278.24184      24567.037      1.191588     
     96100   283.7983       24482.768      1.1956894    
     96200   277.20454      24560.654      1.1918977    
     96300   283.01477      24754.81       1.1825494    
     96400   279.49051      24581.035      1.1909094    
     96500   281.10456      24647.635      1.1876915    
     96600   281.27373      24572.823      1.1913074    
     96700   280.32579      24642.298      1.1879487    
     96800   283.05951      24579.141      1.1910012    
     96900   278.42087      24700.694      1.1851402    
     97000   281.98354      24622.785      1.1888901    
     97100   274.36973      24587.418      1.1906003    
     97200   280.12854      24725.85       1.1839345    
     97300   279.21831      24844.211      1.178294     
     97400   287.12376      24575.338      1.1911855    
     97500   277.74354      24907.254      1.1753117    
     97600   282.2658       24646.639      1.1877395    
     97700   280.37311      24437.348      1.1979118    
     97800   279.15481      24841.239      1.178435     
     97900   277.32716      24920.572      1.1746835    
     98000   278.05922      24947.471      1.173417     
     98100   271.49024      24861.033      1.1774968    
     98200   268.91685      24760.498      1.1822778    
     98300   275.34059      24712.181      1.1845893    
     98400   272.03513      24678.879      1.1861878    
     98500   269.93535      24749.454      1.1828053    
     98600   271.80907      24601.122      1.189937     
     98700   274.17615      24494.303      1.1951263    
     98800   264.562        24631.983      1.1884462    
     98900   269.13606      24587.461      1.1905982    
     99000   269.77221      24440.137      1.197775     
     99100   267.38009      24713.342      1.1845337    
     99200   269.80334      24814.261      1.1797162    
     99300   267.87005      24664.406      1.1868839    
     99400   269.7597       24804.173      1.180196     
     99500   271.22676      24622.353      1.188911     
     99600   265.12008      24727.195      1.1838701    
     99700   266.48581      24542.998      1.1927551    
     99800   272.16939      24485.939      1.1955345    
     99900   269.44952      24623.115      1.1888742    
    100000   270.50413      24809.058      1.1799636    
    100100   271.42885      24740.545      1.1832312    
    100200   271.81486      24899.421      1.1756814    
    100300   268.94243      24692.575      1.1855299    
    100400   272.13948      24812.668      1.179792     
    100500   269.16585      24661.196      1.1870384    
    100600   267.62247      24616.703      1.1891839    
    100700   270.10413      24806.441      1.1800881    
    100800   272.08918      24663.824      1.1869119    
    100900   271.30697      24588.415      1.190552     
    101000   272.10337      24566.377      1.19162      
    101100   276.67203      24771.784      1.1817391    
    101200   272.03783      24911.87       1.1750939    
    101300   266.59427      24632.672      1.1884129    
    101400   282.12385      24532.634      1.193259     
    101500   276.29729      24591.915      1.1903825    
    101600   274.11444      24454.766      1.1970585    
    101700   275.8144       24366.085      1.2014153    
    101800   278.26807      24654.83       1.1873449    
    101900   277.82693      24548.656      1.1924802    
    102000   279.42844      24824.056      1.1792507    
    102100   274.86918      24480.088      1.1958203    
    102200   272.84504      24794.297      1.1806661    
    102300   276.54037      24681.582      1.1860579    
    102400   279.55104      24352.022      1.2021091    
    102500   277.21036      24322.969      1.2035449    
    102600   273.83419      24664.61       1.186874     
    102700   268.53864      24813.322      1.1797609    
    102800   276.35975      24743.999      1.1830661    
    102900   270.49042      24610.473      1.1894849    
    103000   275.1327       24600.79       1.1899531    
    103100   272.69356      24519.898      1.1938788    
    103200   275.23308      24437.223      1.1979179    
    103300   277.11101      24482.725      1.1956915    
    103400   276.30124      24390.88       1.2001939    
    103500   278.14209      24443.582      1.1976062    
    103600   272.49907      24350.38       1.2021901    
    103700   278.36649      24573.978      1.1912514    
    103800   274.81383      24695.696      1.1853801    
    103900   273.92147      24581.863      1.1908693    
    104000   273.66823      24324.081      1.2034899    
    104100   277.58295      24542.197      1.192794     
    104200   274.00374      24627.322      1.1886711    
    104300   272.16509      24706.459      1.1848637    
    104400   273.37905      24533.335      1.1932249    
    104500   273.13926      24578.77       1.1910192    
    104600   272.64432      24700.21       1.1851635    
    104700   269.13852      24575.62       1.1911718    
    104800   269.59099      24643.772      1.1878776    
    104900   266.19609      24611.21       1.1894493    
    105000   267.67051      24487.025      1.1954815    
    105100   266.00144      24599.017      1.1900389    
    105200   267.56867      24379.857      1.2007366    
    105300   271.50425      24472.932      1.1961699    
    105400   274.06762      24511.731      1.1942766    
    105500   269.2109       24621.601      1.1889473    
    105600   272.96696      24548.374      1.1924939    
    105700   271.03559      24582.212      1.1908524    
    105800   272.81302      24473.033      1.196165     
    105900   270.0828       24726.318      1.1839121    
    106000   267.59454      24829.59       1.1789879    
    106100   269.97663      24572.118      1.1913416    
    106200   272.52919      24950.335      1.1732823    
    106300   272.24159      24811.343      1.179855     
    106400   274.46105      24833.719      1.1787919    
    106500   273.8778       24493.383      1.1951712    
    106600   274.23194      24585.045      1.1907152    
    106700   272.3225       24465.229      1.1965466    
    106800   274.27349      24592.854      1.1903371    
    106900   275.04888      24467.17       1.1964516    
    107000   271.62947      24614.109      1.1893092    
    107100   274.8217       24716.146      1.1843993    
    107200   274.01552      24665.064      1.1868522    
    107300   275.40908      24457.95       1.1969027    
    107400   273.20626      24488.571      1.195406     
    107500   275.95859      24485.301      1.1955657    
    107600   279.71198      24420.727      1.1987271    
    107700   278.32098      24569.314      1.1914775    
    107800   272.56428      24637.553      1.1881775    
    107900   276.42914      24554.449      1.1921989    
    108000   269.57678      24686.178      1.1858371    
    108100   280.20933      24535.576      1.1931159    
    108200   271.87647      24446.916      1.1974429    
    108300   265.33845      24511.99       1.1942639    
    108400   275.36335      24484.167      1.1956211    
    108500   275.96556      24441.901      1.1976886    
    108600   275.07044      24701.793      1.1850875    
    108700   273.51453      24545.774      1.1926202    
    108800   277.03281      24428.842      1.1983288    
    108900   273.91065      24425.788      1.1984787    
    109000   268.40348      24585.588      1.1906889    
    109100   272.18224      24609.458      1.189534     
    109200   269.51472      24671.203      1.1865569    
    109300   273.37534      24746.443      1.1829492    
    109400   266.03395      24575.108      1.1911966    
    109500   275.38304      24413.286      1.1990924    
    109600   268.07267      24342.941      1.2025575    
    109700   272.93839      24382.423      1.2006102    
    109800   273.29239      24593.942      1.1902844    
    109900   265.83163      24479.655      1.1958414    
    110000   270.62527      24381.937      1.2006341    
    110100   266.64029      24275.807      1.2058831    
    110200   271.05796      24295.087      1.2049262    
    110300   268.37738      24430.12       1.1982661    
    110400   266.39216      24687.74       1.1857621    
    110500   268.79167      24683.923      1.1859455    
    110600   268.68017      24624.16       1.1888237    
    110700   269.8652       24635.937      1.1882554    
    110800   267.14176      24622.027      1.1889267    
    110900   265.37152      24478.979      1.1958745    
    111000   269.03854      24182.153      1.2105533    
    111100   273.39961      24463.118      1.1966498    
    111200   269.87621      24473.038      1.1961648    
    111300   263.8111       24346.837      1.202365     
    111400   268.61922      24450.442      1.1972702    
    111500   271.27692      24283.267      1.2055127    
    111600   270.907        24541.4        1.1928328    
    111700   271.49561      24764.726      1.1820759    
    111800   270.62388      24583.691      1.1907808    
    111900   273.96186      24582.344      1.190846     
    112000   271.42473      24469.138      1.1963554    
    112100   273.0521       24375.821      1.2009354    
    112200   274.69222      24474.005      1.1961175    
    112300   274.31294      24691.435      1.1855847    
    112400   272.77169      24821.165      1.1793881    
    112500   269.17923      24733.78       1.1835549    
    112600   277.68557      24601.411      1.189923     
    112700   282.54877      24624.244      1.1888197    
    112800   275.95637      24487.466      1.19546      
    112900   274.12225      24644.651      1.1878353    
    113000   280.63547      24424.354      1.198549     
    113100   273.89022      24521.779      1.1937872    
    113200   277.98945      24526.752      1.1935451    
    113300   273.71979      24669.826      1.1866231    
    113400   278.8056       24490.012      1.1953357    
    113500   276.24665      24452.617      1.1971637    
    113600   279.00546      24614.639      1.1892836    
    113700   278.39658      24669.603      1.1866338    
    113800   276.43166      24677.004      1.186278     
    113900   277.84397      24579.41       1.1909882    
    114000   276.10885      24393.882      1.2000462    
    114100   276.22543      24652.612      1.1874517    
    114200   278.78196      24684.523      1.1859166    
    114300   273.33197      24560.876      1.1918869    
    114400   274.97901      24627.277      1.1886733    
    114500   274.81349      24592.929      1.1903334    
    114600   271.89389      24602.313      1.1898794    
    114700   273.95948      24517.644      1.1939886    
    114800   278.42042      24578.753      1.19102      
    114900   276.40959      24763.712      1.1821243    
    115000   273.53968      24814.837      1.1796888    
    115100   274.35704      24479.282      1.1958597    
    115200   275.64485      24602.074      1.189891     
    115300   271.34448      24548.514      1.1924871    
    115400   271.38694      24485.982      1.1955325    
    115500   276.25712      24784.835      1.1811168    
    115600   269.69664      24606.678      1.1896683    
    115700   271.8311       24415.981      1.1989601    
    115800   270.66668      24527.236      1.1935216    
    115900   270.99827      24596.865      1.190143     
    116000   273.9924       24524.128      1.1936728    
    116100   270.7661       24416.928      1.1989136    
    116200   268.97609      24330.37       1.2031788    
    116300   273.5416       24594.063      1.1902785    
    116400   274.68216      24582.903      1.1908189    
    116500   272.49172      24585.527      1.1906918    
    116600   272.07637      24724.562      1.1839961    
    116700   263.28652      24646.047      1.187768     
    116800   271.96447      24685.557      1.1858669    
    116900   269.56931      24621.964      1.1889298    
    117000   271.45983      24509.794      1.194371     
    117100   268.58655      24401.527      1.1996703    
    117200   272.19758      24442.512      1.1976587    
    117300   268.94747      24334.594      1.20297      
    117400   273.96898      24432.246      1.1981619    
    117500   278.97497      24589.191      1.1905144    
    117600   279.24783      24369.524      1.2012457    
    117700   275.8768       24732.567      1.1836129    
    117800   271.83047      24666.161      1.1867994    
    117900   273.90535      24567.309      1.1915748    
    118000   275.86464      24490.169      1.195328     
    118100   282.78501      24608.109      1.1895992    
    118200   281.5525       24511.347      1.1942953    
    118300   276.99583      24691.45       1.1855839    
    118400   282.93635      24387.907      1.2003402    
    118500   277.46192      24376.112      1.200921     
    118600   282.82547      24533.714      1.1932064    
    118700   285.35465      24435.476      1.1980035    
    118800   279.19605      24481.016      1.195775     
    118900   282.11134      24518.644      1.1939398    
    119000   279.40235      24494.174      1.1951326    
    119100   281.90505      24442.509      1.1976588    
    119200   282.18778      24568.837      1.1915007    
    119300   286.05858      24802.283      1.180286     
    119400   275.77537      24702.354      1.1850606    
    119500   275.52679      24577.79       1.1910666    
    119600   277.24997      24527.216      1.1935226    
    119700   279.79297      24693          1.1855095    
    119800   279.49892      24714.021      1.1845011    
    119900   279.17568      24745.993      1.1829708    
    120000   276.96882      24813.657      1.1797449    
    120100   275.11586      25013.017      1.1703421    
    120200   275.99888      24746.841      1.1829302    
    120300   271.97969      24622.913      1.1888839    
    120400   278.83759      24631.445      1.1884721    
    120500   276.545        24466.575      1.1964807    
    120600   271.29457      24835.828      1.1786918    
    120700   276.42136      24700.753      1.1851374    
    120800   273.92916      24642.145      1.1879561    
    120900   276.36132      24721.102      1.1841619    
    121000   274.80509      24764.004      1.1821104    
    121100   278.52559      24753.206      1.1826261    
    121200   277.76495      24581.983      1.1908635    
    121300   273.27249      24703.591      1.1850012    
    121400   278.53515      24619.255      1.1890606    
    121500   275.77346      24603.787      1.1898081    
    121600   276.72948      24566.773      1.1916008    
    121700   277.73478      24474.649      1.1960861    
    121800   267.66937      24580.564      1.1909322    
    121900   268.36984      24546.142      1.1926023    
    122000   272.34348      24558.02       1.1920255    
    122100   278.28869      24550.713      1.1923803    
    122200   274.9927       24370.204      1.2012122    
    122300   272.65212      24302.825      1.2045425    
    122400   273.24451      24448.578      1.1973615    
    122500   270.87609      24444.671      1.1975529    
    122600   270.97105      24461.465      1.1967307    
    122700   271.12886      24376.559      1.200899     
    122800   271.64827      24236.62       1.2078328    
    122900   273.30964      24280.582      1.205646     
    123000   268.89553      24652.062      1.1874782    
    123100   267.17642      24416.135      1.1989525    
    123200   270.39009      24483.291      1.1956639    
    123300   270.49062      24466.774      1.196471     
    123400   273.86966      24430.123      1.198266     
    123500   271.75932      24525.259      1.1936178    
    123600   271.56274      24559.801      1.1919391    
    123700   272.41293      24564.963      1.1916886    
    123800   266.85931      24790.259      1.1808584    
    123900   270.94383      24513.019      1.1942138    
    124000   272.33133      24444.971      1.1975382    
    124100   269.65167      24301.137      1.2046262    
    124200   269.0431       24527.956      1.1934866    
    124300   272.28514      24518.924      1.1939262    
    124400   271.15207      24371.012      1.2011723    
    124500   268.85259      24510.175      1.1943524    
    124600   266.96138      24642.456      1.1879411    
    124700   272.18905      24643.841      1.1878743    
    124800   272.04878      24443.618      1.1976045    
    124900   270.68653      24374.86       1.2009827    
    125000   273.36503      24513.004      1.1942145    
    125100   271.85692      24522.084      1.1937723    
    125200   273.42121      24555.752      1.1921356    
    125300   279.233        24753.823      1.1825966    
    125400   269.31418      24728.467      1.1838092    
    125500   273.20391      24795.401      1.1806136    
    125600   275.69441      24671.046      1.1865644    
    125700   273.43709      24522.429      1.1937556    
    125800   276.41813      24475.137      1.1960622    
    125900   276.56227      24541.731      1.1928167    
    126000   279.18831      24602.382      1.1898761    
    126100   278.31508      24581.117      1.1909054    
    126200   278.31276      24613.402      1.1893433    
    126300   281.82079      24626.337      1.1887187    
    126400   273.19069      24582.225      1.1908518    
    126500   272.45118      24550.237      1.1924034    
    126600   279.60639      24977.576      1.1720027    
    126700   272.78842      24802.015      1.1802987    
    126800   274.52948      24625.728      1.188748     
    126900   272.77539      24664.099      1.1868987    
    127000   280.90995      24894.96       1.1758921    
    127100   277.59046      24825.561      1.1791792    
    127200   275.76643      25023.14       1.1698686    
    127300   275.3552       25113.037      1.1656809    
    127400   273.76343      24779.102      1.1813901    
    127500   279.34974      24732.998      1.1835923    
    127600   276.97173      24678.974      1.1861833    
    127700   277.57086      24824.612      1.1792243    
    127800   271.58762      24833.409      1.1788066    
    127900   267.98803      24689.643      1.1856707    
    128000   270.91374      24295.802      1.2048907    
    128100   274.54535      24397.212      1.1998824    
    128200   276.30011      24461.836      1.1967126    
    128300   268.43633      24487.893      1.1954391    
    128400   272.65623      24603.27       1.1898332    
    128500   268.03845      24672          1.1865185    
    128600   272.77545      24315.163      1.2039313    
    128700   273.39926      24447.356      1.1974214    
    128800   270.83442      24394.027      1.2000391    
    128900   270.8069       24620.602      1.1889955    
    129000   270.88299      24532.673      1.1932571    
    129100   273.04914      24488.211      1.1954236    
    129200   269.33834      24740.24       1.1832458    
    129300   266.4909       24742.592      1.1831334    
    129400   268.12987      24596.732      1.1901494    
    129500   274.42325      24438.001      1.1978797    
    129600   275.09504      24447.082      1.1974348    
    129700   272.22165      24729.957      1.1837378    
    129800   270.45142      24603.905      1.1898024    
    129900   271.56022      24685.371      1.1858759    
    130000   272.49701      24612.968      1.1893643    
    130100   266.15233      24573.545      1.1912724    
    130200   276.39308      24473.653      1.1961347    
    130300   271.66203      24537.498      1.1930224    
    130400   272.59187      24522.42       1.193756     
    130500   271.89547      24641.2        1.1880016    
    130600   263.98531      24554.216      1.1922102    
    130700   271.62369      24424.001      1.1985664    
    130800   270.56656      24398.899      1.1997995    
    130900   272.62627      24440.55       1.1977548    
    131000   271.35668      24545.746      1.1926216    
    131100   269.76395      24672.635      1.186488     
    131200   274.61145      24521.752      1.1937885    
    131300   271.20875      24608.159      1.1895967    
    131400   273.31141      24550.065      1.1924118    
    131500   277.45989      24597.335      1.1901202    
    131600   275.59425      24702.32       1.1850622    
    131700   272.42428      24471.871      1.1962218    
    131800   272.49064      24748.497      1.1828511    
    131900   277.58771      24674.745      1.1863866    
    132000   274.96138      24835.647      1.1787004    
    132100   276.42599      24909.699      1.1751963    
    132200   275.79546      24904.733      1.1754306    
    132300   278.59379      24822.893      1.179306     
    132400   286.08893      24655.268      1.1873238    
    132500   279.69682      24506.824      1.1945157    
    132600   276.39958      24718.786      1.1842728    
    132700   280.67279      24738.606      1.183324     
    132800   278.7698       24749.14       1.1828203    
    132900   278.69847      24826.359      1.1791413    
    133000   285.83365      24628.966      1.1885918    
    133100   277.12734      24697.855      1.1852764    
    133200   280.23878      24690.97       1.185607     
    133300   282.08092      24743.369      1.1830962    
    133400   275.78644      24790.576      1.1808433    
    133500   281.8671       24638.492      1.1881322    
    133600   279.78508      24470.547      1.1962865    
    133700   278.31002      24556.108      1.1921183    
    133800   276.8471       24790.305      1.1808562    
    133900   277.56958      24776.007      1.1815377    
    134000   278.38736      24840.567      1.1784669    
    134100   277.53745      24700.458      1.1851516    
    134200   269.95047      24736.946      1.1834034    
    134300   277.32699      24460.376      1.196784     
    134400   279.23021      24565.235      1.1916754    
    134500   282.28881      24596.708      1.1901505    
    134600   281.45269      24599.005      1.1900394    
    134700   280.73795      24725.952      1.1839296    
    134800   277.03733      24841.547      1.1784204    
    134900   276.21135      24620.734      1.1889892    
    135000   275.22622      24585.371      1.1906994    
    135100   278.59489      24818.543      1.1795127    
    135200   271.45978      25036.38       1.16925      
    135300   271.90417      24810.167      1.1799109    
    135400   273.84049      24509.705      1.1943753    
    135500   275.28125      24487.4        1.1954632    
    135600   271.86224      24504.417      1.194633     
    135700   271.07412      24872.361      1.1769605    
    135800   277.6208       24832.579      1.178846     
    135900   273.12984      24939.426      1.1737955    
    136000   269.26493      24820.783      1.1794062    
    136100   274.94917      24487.159      1.195475     
    136200   273.43124      24700.828      1.1851338    
    136300   272.95366      24743.899      1.1830709    
    136400   274.22471      24567.614      1.19156      
[...]
   1167700   344.23097      25718.207      1.1382514    
   1167800   340.68411      25932.903      1.1288279    
   1167900   346.67989      25865.415      1.1317733    
   1168000   347.99211      25813.284      1.1340589    
   1168100   359.48137      25527.647      1.1467483    
   1168200   356.05242      25585.716      1.1441456    
   1168300   347.26398      25670.209      1.1403797    
   1168400   344.91627      25872.868      1.1314473    
   1168500   343.53216      25732.536      1.1376176    
   1168600   345.94474      25750.539      1.1368223    
   1168700   348.8541       25743.95       1.1371132    
   1168800   353.1798       25828.682      1.1333829    
   1168900   345.86021      25943.866      1.128351     
   1169000   350.05638      25574.439      1.1446502    
   1169100   335.85656      25346.116      1.1549614    
   1169200   345.14446      25836.208      1.1330527    
   1169300   341.09245      25839.291      1.1329175    
   1169400   347.97429      25752.822      1.1367215    
   1169500   348.61162      25639.487      1.1417462    
   1169600   346.28254      25613.894      1.142887     
   1169700   333.39188      25850.643      1.13242      
   1169800   340.7023       25566.212      1.1450185    
   1169900   347.22397      25524.511      1.1468892    
   1170000   349.81732      25656.095      1.1410071    
   1170100   347.24049      25647.497      1.1413896    
   1170200   347.16611      25988.276      1.1264228    
   1170300   347.35301      25768.573      1.1360267    
   1170400   344.88304      25543.751      1.1460254    
   1170500   338.81049      25738.072      1.1373729    
   1170600   340.59451      25855.846      1.1321921    
   1170700   351.66798      25551.594      1.1456736    
   1170800   351.49156      25513.305      1.1473929    
   1170900   344.09099      25640.578      1.1416976    
   1171000   332.77579      25535.1        1.1464136    
   1171100   341.48772      25878.809      1.1311875    
   1171200   341.99464      25714.321      1.1384234    
   1171300   349.21461      25642.674      1.1416043    
   1171400   341.27546      25616.973      1.1427496    
   1171500   332.75795      25583.609      1.1442399    
   1171600   338.79738      25421.159      1.151552     
   1171700   352.44758      25351.258      1.1547272    
   1171800   351.41041      25486.057      1.1486196    
   1171900   341.64052      25408.845      1.1521101    
   1172000   336.0821       25679.507      1.1399668    
   1172100   332.94019      25632.888      1.1420401    
   1172200   342.63206      25677.785      1.1400432    
   1172300   343.20655      25781.896      1.1354396    
   1172400   347.69902      25697.84       1.1391536    
   1172500   347.24361      25623.821      1.1424442    
   1172600   343.89313      25751.568      1.1367768    
   1172700   342.26795      25884.498      1.1309389    
   1172800   340.29255      25710.419      1.1385962    
   1172900   345.6251       25861.471      1.1319459    
   1173000   347.22013      25635.323      1.1419316    
   1173100   342.36332      25529.527      1.1466638    
   1173200   337.27194      25486.398      1.1486043    
   1173300   335.40979      25565.963      1.1450297    
   1173400   344.86884      25583.004      1.1442669    
   1173500   342.71313      25637.21       1.1418476    
   1173600   339.01331      25584.232      1.144212     
   1173700   330.7662       25652.26       1.1411777    
   1173800   327.29619      25692.518      1.1393895    
   1173900   339.28825      25893.683      1.1305378    
   1174000   343.26483      25813.018      1.1340707    
   1174100   341.80411      26022.894      1.1249243    
   1174200   337.77236      25921.916      1.1293064    
   1174300   343.97958      25966.725      1.1273576    
   1174400   335.34457      25852.005      1.1323604    
   1174500   339.67726      25724.893      1.1379556    
   1174600   348.00942      25655.7        1.1410246    
   1174700   346.93486      25640.76       1.1416895    
   1174800   347.6677       25581.442      1.1443368    
   1174900   341.10757      25705.3        1.138823     
   1175000   339.25753      25558.303      1.1453728    
   1175100   354.14853      25658.768      1.1408882    
   1175200   349.36728      25412.527      1.1519431    
   1175300   349.94665      25661.328      1.1407744    
   1175400   336.46208      25573.819      1.1446779    
   1175500   342.4162       25312.729      1.1564848    
   1175600   350.92115      25278.518      1.1580499    
   1175700   343.0248       25540.264      1.1461818    
   1175800   343.84815      25677.704      1.1400469    
   1175900   343.57519      25742.032      1.1371979    
   1176000   338.73236      25919.278      1.1294213    
   1176100   346.88125      25617.462      1.1427278    
   1176200   341.44812      25441.892      1.1506136    
   1176300   344.20327      25674.169      1.1402038    
   1176400   344.08729      25594.567      1.14375      
   1176500   348.13604      25738.379      1.1373593    
   1176600   346.7728       25546.313      1.1459104    
   1176700   342.7128       25624.812      1.1424       
   1176800   345.26064      25905.876      1.1300056    
   1176900   347.01368      25856.398      1.132168     
   1177000   345.2745       25951.609      1.1280143    
   1177100   343.85342      25815.897      1.1339442    
   1177200   344.55186      25971.593      1.1271463    
   1177300   344.33462      25845.393      1.1326501    
   1177400   341.72912      25768.63       1.1360241    
   1177500   344.21326      25612.786      1.1429364    
   1177600   349.13192      25883.557      1.13098      
   1177700   353.05513      25738.418      1.1373576    
   1177800   340.9536       26138.98       1.1199284    
   1177900   344.47589      25737.652      1.1373915    
   1178000   338.01968      25765.569      1.1361591    
   1178100   347.37409      25843.796      1.13272      
   1178200   345.87131      25973.536      1.127062     
   1178300   338.37131      25971.518      1.1271496    
   1178400   343.77757      25758.17       1.1364855    
   1178500   349.32797      25840.283      1.132874     
   1178600   350.21515      25462.793      1.1496691    
   1178700   347.75738      25620.031      1.1426132    
   1178800   344.04209      25775.526      1.1357202    
   1178900   334.16786      25903.359      1.1301154    
   1179000   335.84914      25860.757      1.1319772    
   1179100   346.06052      25796.251      1.1348078    
   1179200   348.12412      25891.287      1.1306424    
   1179300   341.45914      25722.037      1.138082     
   1179400   343.36384      25458.648      1.1498563    
   1179500   340.94155      25745.914      1.1370265    
   1179600   333.31224      25709.726      1.1386269    
   1179700   346.13778      25770.383      1.1359469    
   1179800   339.81687      25831.991      1.1332377    
   1179900   348.18954      25642.208      1.141625     
   1180000   340.58242      25567.237      1.1449726    
   1180100   336.51429      25787.321      1.1352007    
   1180200   338.15501      25776.984      1.135656     
   1180300   340.82014      25743.848      1.1371177    
   1180400   343.38196      25858.78       1.1320637    
   1180500   348.8317       25917.059      1.1295181    
   1180600   336.95537      25927.824      1.1290491    
   1180700   330.36218      26134.373      1.1201258    
   1180800   332.99639      25645.821      1.1414642    
   1180900   341.3464       25746.058      1.1370201    
   1181000   345.94364      25622.702      1.1424941    
   1181100   343.02418      25638.656      1.1417832    
   1181200   344.1579       25598.231      1.1435863    
   1181300   339.2809       25856.83       1.1321491    
   1181400   344.3014       25637.248      1.1418459    
   1181500   339.85216      25615.397      1.1428199    
   1181600   349.21159      25825.514      1.1335219    
   1181700   344.53826      25799.177      1.1346791    
   1181800   343.71412      25604.296      1.1433154    
   1181900   339.17864      25610.162      1.1430535    
   1182000   340.80963      25561.795      1.1452164    
   1182100   337.31609      25553.703      1.145579     
   1182200   336.37931      25538.001      1.1462834    
   1182300   336.85901      25366.226      1.1540458    
   1182400   341.06329      25397.348      1.1526316    
   1182500   331.96603      25451.421      1.1501828    
   1182600   336.4703       25471.869      1.1492595    
   1182700   347.91576      25497.497      1.1481043    
   1182800   346.51567      25568.564      1.1449132    
   1182900   334.07606      25392.068      1.1528713    
   1183000   337.13956      25347.934      1.1548786    
   1183100   334.0271       25621.11       1.1425651    
   1183200   334.26266      25581.188      1.1443482    
   1183300   346.96458      25502.913      1.1478605    
   1183400   340.99176      25513.863      1.1473678    
   1183500   348.24327      25574.977      1.1446261    
   1183600   343.29953      25479.127      1.1489321    
   1183700   343.90161      25628.01       1.1422575    
   1183800   329.4135       25395.047      1.152736     
   1183900   343.0274       25336.188      1.155414     
   1184000   344.55515      25398.049      1.1525998    
   1184100   347.23035      25258.945      1.1589473    
   1184200   339.80372      25658.12       1.140917     
   1184300   338.76271      25279.92       1.1579857    
   1184400   338.39426      25505.037      1.1477649    
   1184500   348.29562      25686.817      1.1396424    
   1184600   356.02558      25567.857      1.1449448    
   1184700   340.45128      25668.535      1.1404541    
   1184800   339.92337      25342.064      1.1551461    
   1184900   343.48894      25688.774      1.1395556    
   1185000   340.6487       25625.214      1.1423821    
   1185100   349.61283      25511.671      1.1474664    
   1185200   348.39195      25718.926      1.1382196    
   1185300   340.96049      25954.905      1.127871     
   1185400   334.85426      25935.215      1.1287273    
   1185500   342.95051      25690.376      1.1394845    
   1185600   345.8696       25648.648      1.1413384    
   1185700   346.6553       25578.429      1.1444716    
   1185800   338.68871      25474.573      1.1491375    
   1185900   332.91679      25686.573      1.1396532    
   1186000   334.29751      25740.48       1.1372665    
   1186100   348.5457       25700.214      1.1390483    
   1186200   344.85245      26040.225      1.1241756    
   1186300   352.17589      25983.587      1.126626     
   1186400   338.28671      25802.21       1.1345457    
   1186500   338.49347      26171.09       1.1185543    
   1186600   338.07961      26024.193      1.1248682    
   1186700   340.77455      25784.127      1.1353414    
   1186800   346.92949      25763.361      1.1362565    
   1186900   348.45767      25926.519      1.1291059    
   1187000   339.84637      26242.789      1.1154983    
   1187100   339.65429      26110.866      1.1211343    
   1187200   343.23643      25459.509      1.1498174    
   1187300   346.46279      25150.326      1.1639525    
   1187400   337.618        25393.995      1.1527838    
   1187500   342.79747      25853.207      1.1323077    
   1187600   343.54753      25535.288      1.1464052    
   1187700   352.30741      25269.877      1.1584459    
   1187800   343.65917      25370.969      1.15383      
   1187900   338.87964      25942.852      1.1283951    
   1188000   343.94815      25571.383      1.144787     
   1188100   352.55075      25548.93       1.145793     
   1188200   343.5493       25993.229      1.1262081    
   1188300   349.42165      25674.681      1.1401811    
   1188400   337.60004      25726.253      1.1378954    
   1188500   341.29231      25395.742      1.1527045    
   1188600   335.78574      25902.287      1.1301622    
   1188700   353.19266      26183.678      1.1180166    
   1188800   353.79969      25995.994      1.1260883    
   1188900   345.78676      25665.75       1.1405778    
   1189000   341.33638      25692.099      1.1394081    
   1189100   335.09547      25762.478      1.1362954    
   1189200   340.93926      25707.994      1.1387036    
   1189300   348.55196      25801.737      1.1345665    
   1189400   351.7597       25708.956      1.138661     
   1189500   345.08253      25618.348      1.1426883    
   1189600   340.1326       25644.579      1.1415195    
   1189700   337.37339      25312.333      1.1565029    
   1189800   337.96777      25573.332      1.1446997    
   1189900   343.00297      25537.727      1.1462957    
   1190000   350.30399      25376.069      1.1535982    
   1190100   340.81288      25708.526      1.13868      
   1190200   337.1441       25549.44       1.1457702    
   1190300   338.75857      25542.474      1.1460826    
   1190400   346.8821       25846.753      1.1325904    
   1190500   355.22945      25522.162      1.1469948    
   1190600   354.00567      25910.057      1.1298233    
   1190700   348.12668      25646.815      1.14142      
   1190800   336.5817       25880.59       1.1311097    
   1190900   342.29055      25743.289      1.1371424    
   1191000   341.29422      25583.16       1.14426      
   1191100   337.29697      25669.34       1.1404183    
   1191200   343.69237      25608.469      1.1431291    
   1191300   350.47431      25556.112      1.145471     
   1191400   346.24273      25990.507      1.1263261    
   1191500   335.63316      25686.958      1.1396361    
   1191600   337.335        25579.112      1.144441     
   1191700   342.95089      25772.374      1.1358591    
   1191800   340.77371      26181.685      1.1181017    
   1191900   346.56131      25875.838      1.1313174    
   1192000   338.38934      25792.463      1.1349744    
   1192100   335.99195      25594.672      1.1437453    
   1192200   345.2368       25557.539      1.1454071    
   1192300   349.95836      25734.655      1.1375239    
   1192400   346.83081      25789.499      1.1351049    
   1192500   341.65327      25751.688      1.1367715    
   1192600   345.82729      25535.885      1.1463784    
   1192700   343.12125      25708.337      1.1386884    
   1192800   336.85663      25568.334      1.1449235    
   1192900   341.80987      25439.135      1.1507382    
   1193000   339.51907      25622.511      1.1425026    
   1193100   341.63791      25798.227      1.1347209    
   1193200   349.38387      25509.261      1.1475748    
   1193300   337.50675      25231.529      1.1602066    
   1193400   339.92717      25385.482      1.1531704    
   1193500   335.24722      25731.003      1.1376854    
   1193600   336.96634      25741.185      1.1372354    
   1193700   348.32716      25589.348      1.1439833    
   1193800   341.1658       25777.319      1.1356412    
   1193900   344.97556      25666.004      1.1405666    
   1194000   348.26976      25586.777      1.1440982    
   1194100   338.75051      25487.831      1.1485397    
   1194200   332.43231      25585.739      1.1441447    
   1194300   339.83009      25310.988      1.1565643    
   1194400   343.15411      25280.291      1.1579687    
   1194500   342.44355      25429.62       1.1511688    
   1194600   346.62413      25390.677      1.1529344    
   1194700   342.10745      25389.065      1.1530076    
   1194800   342.20763      25172.225      1.1629399    
   1194900   330.45002      25361.544      1.1542588    
   1195000   341.08987      25637.747      1.1418237    
   1195100   345.83937      25332.147      1.1555983    
   1195200   345.35945      25435.065      1.1509224    
   1195300   350.82394      25396.544      1.1526681    
   1195400   334.94793      25552.555      1.1456305    
   1195500   335.84781      25488.327      1.1485174    
   1195600   345.14897      25502.977      1.1478576    
   1195700   347.06592      25599.17       1.1435444    
   1195800   334.86248      25621.846      1.1425323    
   1195900   337.22448      25471.232      1.1492882    
   1196000   339.34962      25549.584      1.1457637    
   1196100   346.16246      25331.995      1.1556052    
   1196200   347.46028      25369.537      1.1538952    
   1196300   344.8812       25413.35       1.1519058    
   1196400   339.21238      25255.878      1.159088     
   1196500   340.28452      25410.862      1.1520186    
   1196600   335.36206      25318.328      1.156229     
   1196700   348.41631      25422.951      1.1514708    
   1196800   352.021        25472.483      1.1492317    
   1196900   346.81416      25561.795      1.1452164    
   1197000   344.62276      25675.688      1.1401364    
   1197100   344.50369      25619.713      1.1426274    
   1197200   346.47033      25688.981      1.1395464    
   1197300   336.922        25556.805      1.14544      
   1197400   338.25457      25731.008      1.1376851    
   1197500   347.37488      25737.871      1.1373818    
   1197600   351.42712      25765.423      1.1361655    
   1197700   345.32679      25745.357      1.1370511    
   1197800   343.0602       25499.467      1.1480156    
   1197900   337.14061      25669.389      1.1404161    
   1198000   349.57954      25399.222      1.1525466    
   1198100   349.19303      25514.29       1.1473486    
   1198200   343.90917      25523.122      1.1469516    
   1198300   337.92913      25279.357      1.1580115    
   1198400   342.91053      25608.394      1.1431324    
   1198500   345.79986      25790.764      1.1350492    
   1198600   352.75087      25513.214      1.147397     
   1198700   348.49336      25657.158      1.1409598    
   1198800   352.57958      25590.075      1.1439508    
   1198900   344.2534       25756.226      1.1365712    
   1199000   337.81329      25337.917      1.1553351    
   1199100   338.73449      25434.018      1.1509698    
   1199200   350.75282      25552.263      1.1456436    
   1199300   350.42169      25691.75       1.1394236    
   1199400   347.94115      25998.386      1.1259848    
   1199500   349.78682      25865.919      1.1317513    
   1199600   337.94118      25932.391      1.1288502    
   1199700   338.42871      25657.463      1.1409462    
   1199800   339.3617       25533.853      1.1464696    
   1199900   357.02932      25635.231      1.1419357    
   1200000   351.02738      25583.373      1.1442505    
Loop time of 604.908 on 4 procs for 150000 steps with 2808 atoms

Performance: 21.425 ns/day, 1.120 hours/ns, 247.971 timesteps/s
336.7% CPU use with 1 MPI tasks x 4 OpenMP threads

MPI task timing breakdown:
Section |  min time  |  avg time  |  max time  |%varavg| %total
---------------------------------------------------------------
Pair    | 406.5      | 406.5      | 406.5      |   0.0 | 67.20
Bond    | 42.037     | 42.037     | 42.037     |   0.0 |  6.95
Neigh   | 84.643     | 84.643     | 84.643     |   0.0 | 13.99
Comm    | 12.83      | 12.83      | 12.83      |   0.0 |  2.12
Output  | 0.13044    | 0.13044    | 0.13044    |   0.0 |  0.02
Modify  | 57.187     | 57.187     | 57.187     |   0.0 |  9.45
Other   |            | 1.583      |            |       |  0.26

Nlocal:           2808 ave        2808 max        2808 min
Histogram: 1 0 0 0 0 0 0 0 0 0
Nghost:          14011 ave       14011 max       14011 min
Histogram: 1 0 0 0 0 0 0 0 0 0
Neighs:    1.09989e+06 ave 1.09989e+06 max 1.09989e+06 min
Histogram: 1 0 0 0 0 0 0 0 0 0

Total # of neighbors = 1099887
Ave neighs/atom = 391.69765
Ave special neighs/atom = 11.65812
Neighbor list builds = 7930
Dangerous builds = 0
unfix			1
#final
write_data		thermal_expansion_before_glass_transition_no_link.data
System init for write_data ...
Generated 36 of 36 mixed pair_coeff terms from geometric mixing rule
Last active /omp style is angle_style harmonic/omp

#parameter
neighbor		2.0 bin
Total wall time: 1:21:38
