LAMMPS (23 Jun 2022 - Update 1)
OMP_NUM_THREADS environment is not set. Defaulting to 1 thread. (src/comm.cpp:98)
  using 1 OpenMP thread(s) per MPI task
Loaded 1 plugins from C:\Users\divy\AppData\Local\LAMMPS 64-bit 23Jun2022\plugins
package omp 0
using multi-threaded neighbor list subroutines
package omp 4
set 4 OpenMP thread(s) per MPI task
using multi-threaded neighbor list subroutines
# Initialization
units			real
dimension		3
processors		* * *
boundary		p p p
atom_style		full
pair_style		lj/cut 10.0
bond_style		harmonic
angle_style 	harmonic
read_data		PVA_4.data
Reading data file ...
  orthogonal box = (-4.808003 -6.385 -4.966499) to (95.191997 93.615 95.033501)
  1 by 1 by 1 MPI processor grid
  reading atoms ...
  2808 atoms
  scanning bonds ...
  3 = max bonds/atom
  scanning angles ...
  6 = max angles/atom
  reading bonds ...
  2804 bonds
  reading angles ...
  5200 angles
Finding 1-2 1-3 1-4 neighbors ...
  special bond factors lj:    0        0        0       
  special bond factors coul:  0        0        0       
     4 = max # of 1-2 neighbors
     7 = max # of 1-3 neighbors
    14 = max # of 1-4 neighbors
    18 = max # of special neighbors
  special bonds CPU = 0.003 seconds
  read_data CPU = 0.038 seconds

#output

thermo			100
thermo_style	custom step temp pe press vol lx density
dump			1 all custom 100 no_link.lammpstrj id type x y z

#intial minimization
minimize		1.0e-5 1.0e-5 10000 10000
WARNING: Using 'neigh_modify every 1 delay 0 check yes' setting during minimization (src/min.cpp:187)
Generated 36 of 36 mixed pair_coeff terms from geometric mixing rule
Last active /omp style is angle_style harmonic/omp
Neighbor list info ...
  update every 1 steps, delay 0 steps, check yes
  max neighbors/atom: 2000, page size: 100000
  master list distance cutoff = 12
  ghost atom cutoff = 12
  binsize = 6, bins = 17 17 17
  1 neighbor lists, perpetual/occasional/extra = 1 0 0
  (1) pair lj/cut/omp, perpetual
      attributes: half, newton on, omp
      pair build: half/bin/newton/omp
      stencil: half/bin/3d
      bin: standard
Per MPI rank memory allocation (min/avg/max) = 14.31 | 14.31 | 14.31 Mbytes
   Step          Temp          PotEng         Press          Volume           Lx          Density    
         0   0              2254.918      -495.94408      1000000        100            0.029273786  
       100   0             -151.45341     -15.903539      1000000        100            0.029273786  
       200   0             -220.49418     -4.8887673      1000000        100            0.029273786  
       300   0             -258.88344     -4.8756192      1000000        100            0.029273786  
       400   0             -283.551       -7.6010186      1000000        100            0.029273786  
       500   0             -298.43306     -5.2387416      1000000        100            0.029273786  
       600   0             -307.19832     -1.6232632      1000000        100            0.029273786  
       700   0             -313.88349     -5.4011732      1000000        100            0.029273786  
       800   0             -321.07492     -3.4329163      1000000        100            0.029273786  
       900   0             -327.5575      -1.6219823      1000000        100            0.029273786  
      1000   0             -333.43043     -2.4890431      1000000        100            0.029273786  
      1100   0             -340.36184     -5.1165571      1000000        100            0.029273786  
      1200   0             -348.20351     -6.0397983      1000000        100            0.029273786  
      1300   0             -355.66374     -5.7317709      1000000        100            0.029273786  
      1400   0             -363.98512     -4.709547       1000000        100            0.029273786  
      1500   0             -371.17548     -4.3893488      1000000        100            0.029273786  
      1600   0             -377.1547      -4.6041336      1000000        100            0.029273786  
      1700   0             -382.86225     -4.0938487      1000000        100            0.029273786  
      1800   0             -389.1754      -4.702445       1000000        100            0.029273786  
      1900   0             -395.30239     -6.5846095      1000000        100            0.029273786  
      2000   0             -404.08628     -4.7815101      1000000        100            0.029273786  
      2100   0             -411.92234     -2.397306       1000000        100            0.029273786  
      2200   0             -416.11895     -3.0132592      1000000        100            0.029273786  
      2300   0             -419.00589     -3.0587359      1000000        100            0.029273786  
      2400   0             -422.73903     -2.8060359      1000000        100            0.029273786  
      2500   0             -428.25573     -4.1170081      1000000        100            0.029273786  
      2600   0             -433.469       -1.7752931      1000000        100            0.029273786  
      2700   0             -437.30961     -4.6524594      1000000        100            0.029273786  
      2800   0             -440.33021     -2.5757837      1000000        100            0.029273786  
      2900   0             -442.38985     -2.7610977      1000000        100            0.029273786  
      3000   0             -444.21387     -4.1881644      1000000        100            0.029273786  
      3100   0             -446.54725     -4.3366118      1000000        100            0.029273786  
      3200   0             -450.6438      -4.3353155      1000000        100            0.029273786  
      3300   0             -455.9474      -4.974396       1000000        100            0.029273786  
      3400   0             -462.40172     -2.2169351      1000000        100            0.029273786  
      3500   0             -468.95476     -4.4956052      1000000        100            0.029273786  
      3600   0             -476.42077     -5.9254068      1000000        100            0.029273786  
      3700   0             -485.23246     -4.8842255      1000000        100            0.029273786  
      3800   0             -494.26261     -4.2424629      1000000        100            0.029273786  
      3900   0             -501.63107     -5.6283504      1000000        100            0.029273786  
      4000   0             -506.47833     -4.5519538      1000000        100            0.029273786  
      4100   0             -510.5152      -4.2822495      1000000        100            0.029273786  
      4200   0             -515.66263     -4.5291345      1000000        100            0.029273786  
      4300   0             -522.75642     -6.4575865      1000000        100            0.029273786  
      4400   0             -532.53371     -2.8180816      1000000        100            0.029273786  
      4500   0             -541.70335     -3.6989657      1000000        100            0.029273786  
      4600   0             -548.69984     -5.394367       1000000        100            0.029273786  
      4700   0             -553.50519     -4.8878273      1000000        100            0.029273786  
      4800   0             -557.99406     -5.2842674      1000000        100            0.029273786  
      4900   0             -563.50861     -5.107924       1000000        100            0.029273786  
      4999   0             -568.84496     -4.1192352      1000000        100            0.029273786  
Loop time of 13.371 on 4 procs for 4999 steps with 2808 atoms

298.3% CPU use with 1 MPI tasks x 4 OpenMP threads

Minimization stats:
  Stopping criterion = max force evaluations
  Energy initial, next-to-last, final = 
      2254.91802565372  -568.790430514081  -568.844963880961
  Force two-norm initial, final = 1832.0911 6.8880075
  Force max component initial, final = 129.34325 1.0531066
  Final line search alpha, max atom move = 0.011827467 0.012455584
  Iterations, force evaluations = 4999 10000

MPI task timing breakdown:
Section |  min time  |  avg time  |  max time  |%varavg| %total
---------------------------------------------------------------
Pair    | 9.8408     | 9.8408     | 9.8408     |   0.0 | 73.60
Bond    | 2.3502     | 2.3502     | 2.3502     |   0.0 | 17.58
Neigh   | 0.12392    | 0.12392    | 0.12392    |   0.0 |  0.93
Comm    | 0.05953    | 0.05953    | 0.05953    |   0.0 |  0.45
Output  | 0.25629    | 0.25629    | 0.25629    |   0.0 |  1.92
Modify  | 0.30504    | 0.30504    | 0.30504    |   0.0 |  2.28
Other   |            | 0.4353     |            |       |  3.26

Nlocal:           2808 ave        2808 max        2808 min
Histogram: 1 0 0 0 0 0 0 0 0 0
Nghost:            345 ave         345 max         345 min
Histogram: 1 0 0 0 0 0 0 0 0 0
Neighs:         220498 ave      220498 max      220498 min
Histogram: 1 0 0 0 0 0 0 0 0 0

Total # of neighbors = 220498
Ave neighs/atom = 78.524929
Ave special neighs/atom = 11.65812
Neighbor list builds = 79
Dangerous builds = 0

timestep 1
# nvt for 200 ps
fix			1 all nvt temp 300 300 100
run			200000
Generated 36 of 36 mixed pair_coeff terms from geometric mixing rule
Last active /omp style is angle_style harmonic/omp
Per MPI rank memory allocation (min/avg/max) = 13.19 | 13.19 | 13.19 Mbytes
   Step          Temp          PotEng         Press          Volume           Lx          Density    
      4999   0             -568.84496     -4.1192352      1000000        100            0.029273786  
      5000   0.00045550154 -568.84913     -4.122899       1000000        100            0.029273786  
      5100   0.25662842    -570.70346     -4.1100709      1000000        100            0.029273786  
      5200   0.48541087    -571.45381     -4.7461838      1000000        100            0.029273786  
      5300   0.80730327    -571.92635     -2.8320146      1000000        100            0.029273786  
      5400   1.2647241     -571.86936     -3.2506777      1000000        100            0.029273786  
      5500   1.7082645     -569.62251     -2.2817632      1000000        100            0.029273786  
      5600   2.3542123     -566.77173     -4.4779279      1000000        100            0.029273786  
      5700   3.5396178     -564.15479     -4.751817       1000000        100            0.029273786  
      5800   5.2564858     -559.23576     -4.2285062      1000000        100            0.029273786  
      5900   8.182956      -553.89547     -8.9373037      1000000        100            0.029273786  
      6000   12.580469     -543.37128     -4.5504768      1000000        100            0.029273786  
      6100   20.104374     -531.53927     -2.7547787      1000000        100            0.029273786  
      6200   32.741749     -515.39131     -8.4271955      1000000        100            0.029273786  
      6300   52.168206     -483.81878     -5.3406862      1000000        100            0.029273786  
      6400   83.873088     -442.15546      11.949644      1000000        100            0.029273786  
      6500   128.03467     -352.90182      11.840568      1000000        100            0.029273786  
      6600   193.4504      -261.58053      31.745784      1000000        100            0.029273786  
      6700   263.47688     -89.142806      47.893377      1000000        100            0.029273786  
      6800   324.53033      59.509509      38.189216      1000000        100            0.029273786  
      6900   326.08358      228.49951      98.371827      1000000        100            0.029273786  
      7000   298.4108       230.90532      67.057461      1000000        100            0.029273786  
      7100   275.23997      291.9972       8.3917496      1000000        100            0.029273786  
      7200   297.21294      306.17824      60.958805      1000000        100            0.029273786  
      7300   319.52953      382.57556      37.997752      1000000        100            0.029273786  
      7400   311.95448      431.43855      27.943895      1000000        100            0.029273786  
      7500   283.24672      486.07776      8.2487469      1000000        100            0.029273786  
      7600   287.8201       458.21619      31.928649      1000000        100            0.029273786  
      7700   305.69062      494.49229      26.310931      1000000        100            0.029273786  
      7800   316.63334      517.1832       28.342889      1000000        100            0.029273786  
      7900   303.84188      557.34205      31.613263      1000000        100            0.029273786  
      8000   291.00953      574.75629      51.012356      1000000        100            0.029273786  
      8100   289.32973      627.20772      40.027958      1000000        100            0.029273786  
      8200   302.83507      708.07761      20.844205      1000000        100            0.029273786  
      8300   313.19026      718.36727      19.994379      1000000        100            0.029273786  
      8400   301.03588      697.92184     -3.9463879      1000000        100            0.029273786  
      8500   287.8872       693.16221     -1.0940678      1000000        100            0.029273786  
      8600   292.77338      732.98982      98.552464      1000000        100            0.029273786  
      8700   307.95231      805.62694      66.184138      1000000        100            0.029273786  
      8800   315.14681      842.58277      14.057894      1000000        100            0.029273786  
      8900   299.63295      869.64747     -3.0729092      1000000        100            0.029273786  
      9000   282.84122      883.42622      34.636496      1000000        100            0.029273786  
      9100   296.42001      826.37818      27.9062        1000000        100            0.029273786  
      9200   302.5858       911.2062       4.152463       1000000        100            0.029273786  
      9300   309.63793      961.60374      15.87306       1000000        100            0.029273786  
      9400   307.0776       970.76083     -21.216125      1000000        100            0.029273786  
      9500   297.24418      959.30737      45.665844      1000000        100            0.029273786  
      9600   293.53572      938.58709     -25.690784      1000000        100            0.029273786  
      9700   295.30948      982.63883      10.530814      1000000        100            0.029273786  
      9800   298.94272      1036.4497      40.513301      1000000        100            0.029273786  
      9900   302.99616      1025.8315      66.333518      1000000        100            0.029273786  
     10000   298.69027      1035.9829     -0.035283247    1000000        100            0.029273786  
     10100   298.41805      1052.597       12.853593      1000000        100            0.029273786  
     10200   296.17274      1083.4461      26.185446      1000000        100            0.029273786  
     10300   302.26445      1119.2955      19.400746      1000000        100            0.029273786  
     10400   304.8402       1199.1169      55.4751        1000000        100            0.029273786  
     10500   302.41413      1193.781       32.268612      1000000        100            0.029273786  
     10600   300.33418      1116.1293      16.499594      1000000        100            0.029273786  
     10700   290.4863       1120.8551     -28.936924      1000000        100            0.029273786  
     10800   298.49601      1083.4195      44.96537       1000000        100            0.029273786  
     10900   299.80493      1187.3893      9.7155796      1000000        100            0.029273786  
     11000   309.63064      1211.5517      41.332238      1000000        100            0.029273786  
     11100   303.32439      1236.5041      21.664002      1000000        100            0.029273786  
     11200   300.96335      1128.0456     -6.0147934      1000000        100            0.029273786  
     11300   294.83344      1109.0783      19.296059      1000000        100            0.029273786  
     11400   295.35954      1162.1917      6.0765467      1000000        100            0.029273786  
     11500   309.06356      1191.7118     -11.172047      1000000        100            0.029273786  
     11600   309.10705      1252.3523      10.540135      1000000        100            0.029273786  
     11700   302.87249      1246.3515      9.3313988      1000000        100            0.029273786  
     11800   295.55578      1209.1377      19.012271      1000000        100            0.029273786  
     11900   290.49703      1237.4034      13.139624      1000000        100            0.029273786  
     12000   306.54573      1184.424       34.354245      1000000        100            0.029273786  
     12100   301.79674      1288.2754      2.0011887      1000000        100            0.029273786  
     12200   300.61161      1298.4414     -13.453795      1000000        100            0.029273786  
     12300   298.76575      1265.4357     -9.4188258      1000000        100            0.029273786  
     12400   297.81535      1257.58       -13.933439      1000000        100            0.029273786  
     12500   294.54862      1327.78       -26.288417      1000000        100            0.029273786  
     12600   313.15558      1245.0946      35.653513      1000000        100            0.029273786  
     12700   299.21075      1364.802       15.878271      1000000        100            0.029273786  
     12800   294.8666       1356.4666     -1.8358701      1000000        100            0.029273786  
     12900   302.48941      1237.9308     -23.184857      1000000        100            0.029273786  
     13000   296.42373      1262.4049     -21.127744      1000000        100            0.029273786  
     13100   303.55948      1257.0854      56.403436      1000000        100            0.029273786  
     13200   300.53114      1362.7476     -49.25445       1000000        100            0.029273786  
     13300   302.75438      1400.146       56.257779      1000000        100            0.029273786  
     13400   304.57016      1356.2207      15.966767      1000000        100            0.029273786  
     13500   294.23554      1389.1287      36.795233      1000000        100            0.029273786  
     13600   299.9145       1350.0297      53.217279      1000000        100            0.029273786  
     13700   303.88431      1335.772      -25.73058       1000000        100            0.029273786  
     13800   293.3635       1410.2313     -29.805803      1000000        100            0.029273786  
     13900   301.66121      1331.5507      3.5864846      1000000        100            0.029273786  
     14000   293.68344      1379.0352     -30.702748      1000000        100            0.029273786  
     14100   296.00662      1408.6593      11.319272      1000000        100            0.029273786  
     14200   302.39225      1399.2213     -0.25450417     1000000        100            0.029273786  
     14300   298.35569      1426.802      -17.087691      1000000        100            0.029273786  
     14400   299.75074      1392.1469      46.790283      1000000        100            0.029273786  
     14500   301.25273      1360.1208      41.114185      1000000        100            0.029273786  
     14600   297.4005       1373.7886     -35.829055      1000000        100            0.029273786  
     14700   298.23946      1372.4948     -23.21711       1000000        100            0.029273786  
     14800   300.53332      1412.5023      10.896636      1000000        100            0.029273786  
     14900   304.98872      1425.6817     -6.6915152      1000000        100            0.029273786  
     15000   300.67282      1434.3781      42.32126       1000000        100            0.029273786  
     15100   297.70812      1394.0792      46.989455      1000000        100            0.029273786  
     15200   298.66846      1357.0546     -47.122942      1000000        100            0.029273786  
     15300   297.45859      1407.7545      17.879478      1000000        100            0.029273786  
     15400   302.88316      1432.9206     -36.800357      1000000        100            0.029273786  
     15500   303.67914      1427.6547     -2.6458774      1000000        100            0.029273786  
     15600   297.78814      1450.8031      38.864276      1000000        100            0.029273786  
     15700   301.18081      1407.1298      57.878666      1000000        100            0.029273786  
     15800   299.63681      1428.7146     -38.154974      1000000        100            0.029273786  
     15900   295.75806      1476.6952      5.4841259      1000000        100            0.029273786  
     16000   302.89408      1439.1033     -43.228918      1000000        100            0.029273786  
     16100   304.1123       1454.1291      26.224498      1000000        100            0.029273786  
     16200   307.51619      1426.7493      22.673542      1000000        100            0.029273786  
     16300   305.71563      1401.358       16.915703      1000000        100            0.029273786  
     16400   295.46807      1445.8925      37.546166      1000000        100            0.029273786  
     16500   295.12642      1457.7556      6.2366124      1000000        100            0.029273786  
     16600   301.19027      1463.8976      63.43896       1000000        100            0.029273786  
     16700   303.96336      1484.0084     -6.2495248      1000000        100            0.029273786  
     16800   307.40798      1426.4741     -21.201797      1000000        100            0.029273786  
     16900   296.86517      1434.8609     -54.463637      1000000        100            0.029273786  
     17000   293.69177      1419.1233      12.977371      1000000        100            0.029273786  
     17100   290.4896       1482.9658     -55.562559      1000000        100            0.029273786  
     17200   302.14018      1470.7522     -29.454548      1000000        100            0.029273786  
     17300   303.27747      1508.6112     -6.0078939      1000000        100            0.029273786  
     17400   306.62166      1448.114      -65.635263      1000000        100            0.029273786  
     17500   300.29077      1413.6163      13.513576      1000000        100            0.029273786  
     17600   292.26192      1429.671      -20.005315      1000000        100            0.029273786  
     17700   293.80534      1462.13        42.397649      1000000        100            0.029273786  
     17800   298.10931      1541.6996     -4.9998309      1000000        100            0.029273786  
     17900   311.41393      1499.2631      27.895034      1000000        100            0.029273786  
     18000   305.18794      1456.4543     -0.33598412     1000000        100            0.029273786  
     18100   287.82833      1477.3459     -10.557306      1000000        100            0.029273786  
     18200   296.00875      1417.1902     -58.298761      1000000        100            0.029273786  
     18300   301.48732      1502.5994     -23.06687       1000000        100            0.029273786  
     18400   308.28594      1555.1982      28.137638      1000000        100            0.029273786  
     18500   303.5674       1560.2663      3.9044417      1000000        100            0.029273786  
     18600   297.06913      1474.1058     -0.36463723     1000000        100            0.029273786  
     18700   294.47516      1399.7577      34.328188      1000000        100            0.029273786  
     18800   292.07983      1437.8103      10.915107      1000000        100            0.029273786  
     18900   302.95992      1472.8878     -14.399578      1000000        100            0.029273786  
     19000   306.26042      1523.561       28.216303      1000000        100            0.029273786  
     19100   303.46291      1497.2945      69.35366       1000000        100            0.029273786  
     19200   298.63223      1429.673       0.3162464      1000000        100            0.029273786  
     19300   292.25498      1445.5114     -25.124938      1000000        100            0.029273786  
     19400   298.75081      1459.825       16.955891      1000000        100            0.029273786  
     19500   308.60883      1469.4532      28.075673      1000000        100            0.029273786  
     19600   302.74415      1531.8008      2.6437126      1000000        100            0.029273786  
     19700   299.23799      1504.9431      67.669246      1000000        100            0.029273786  
     19800   295.23294      1470.1208      20.202801      1000000        100            0.029273786  
     19900   298.02658      1431.1976     -13.916689      1000000        100            0.029273786  
     20000   303.67964      1432.4875      38.169324      1000000        100            0.029273786  
     20100   299.15656      1550.1191     -35.317575      1000000        100            0.029273786  
     20200   303.65598      1523.4555     -9.854482       1000000        100            0.029273786  
     20300   297.40287      1535.5525      5.5208048      1000000        100            0.029273786  
     20400   294.80003      1502.8787     -20.29925       1000000        100            0.029273786  
     20500   301.10646      1420.0161      0.74257461     1000000        100            0.029273786  
     20600   297.1138       1467.7066      2.5221299      1000000        100            0.029273786  
     20700   302.36918      1470.5942     -8.1029439      1000000        100            0.029273786  
     20800   301.76886      1514.6853     -67.704904      1000000        100            0.029273786  
     20900   294.92166      1571.9708     -56.843476      1000000        100            0.029273786  
     21000   297.39021      1504.3273     -68.584451      1000000        100            0.029273786  
     21100   294.62699      1489.4694     -43.066001      1000000        100            0.029273786  
     21200   301.7096       1426.4103     -41.968644      1000000        100            0.029273786  
     21300   295.90423      1480.402       9.9185022      1000000        100            0.029273786  
     21400   300.84342      1439.2247      39.465357      1000000        100            0.029273786  
     21500   299.08093      1442.3661     -13.786482      1000000        100            0.029273786  
     21600   300.82617      1415.7245      13.447066      1000000        100            0.029273786  
     21700   296.94682      1442.1389     -63.27989       1000000        100            0.029273786  
     21800   302.27501      1382.9601     -34.864659      1000000        100            0.029273786  
     21900   301.19058      1405.2456     -50.161996      1000000        100            0.029273786  
     22000   296.20028      1482.0659     -18.811305      1000000        100            0.029273786  
     22100   299.82004      1471.7055     -18.067616      1000000        100            0.029273786  
     22200   300.59973      1441.1334      45.115198      1000000        100            0.029273786  
     22300   301.26224      1384.0297      9.5788289      1000000        100            0.029273786  
     22400   297.86833      1371.981      -33.962428      1000000        100            0.029273786  
     22500   303.4304       1355.1201     -25.5024        1000000        100            0.029273786  
     22600   303.73836      1415.6011     -20.0427        1000000        100            0.029273786  
     22700   305.35628      1431.4158     -23.950871      1000000        100            0.029273786  
     22800   297.79784      1457.5532     -11.61216       1000000        100            0.029273786  
     22900   297.37349      1397.2312     -29.816448      1000000        100            0.029273786  
     23000   295.50593      1386.7393     -47.314917      1000000        100            0.029273786  
     23100   297.66586      1400.2002     -32.907669      1000000        100            0.029273786  
     23200   300.54354      1432.0978     -55.390301      1000000        100            0.029273786  
     23300   301.01051      1455.2183     -15.540226      1000000        100            0.029273786  
     23400   302.97929      1422.6699     -29.254078      1000000        100            0.029273786  
     23500   304.42802      1367.001       8.1096235      1000000        100            0.029273786  
     23600   294.78784      1404.0511     -22.873672      1000000        100            0.029273786  
     23700   297.93931      1392.6797     -48.589157      1000000        100            0.029273786  
     23800   301.45071      1427.1226      3.5338803      1000000        100            0.029273786  
     23900   304.08608      1435.2639      25.895358      1000000        100            0.029273786  
     24000   297.82627      1447.2158      33.422956      1000000        100            0.029273786  
     24100   296.96112      1408.7952      76.918595      1000000        100            0.029273786  
     24200   300.66376      1369.3444      63.261051      1000000        100            0.029273786  
     24300   296.9138       1408.457       4.508643       1000000        100            0.029273786  
     24400   298.09367      1402.9291     -44.263399      1000000        100            0.029273786  
     24500   300.63985      1382.2429      4.2170058      1000000        100            0.029273786  
     24600   302.95496      1378.1129     -1.0201529      1000000        100            0.029273786  
     24700   302.85535      1396.337      -22.733667      1000000        100            0.029273786  
     24800   300.63961      1419.4335      17.185007      1000000        100            0.029273786  
     24900   296.7147       1431.0729     -5.185178       1000000        100            0.029273786  
     25000   305.72884      1346.679       2.4011413      1000000        100            0.029273786  
     25100   300.17499      1380.314      -18.989447      1000000        100            0.029273786  
     25200   296.64423      1402.1907     -20.689768      1000000        100            0.029273786  
     25300   305.39738      1354.0814      16.785289      1000000        100            0.029273786  
     25400   297.5438       1405.1592      7.0565819      1000000        100            0.029273786  
     25500   299.99626      1355.7676     -32.64388       1000000        100            0.029273786  
     25600   299.53112      1347.8586      6.6646418      1000000        100            0.029273786  
     25700   297.87466      1386.8178      5.4511649      1000000        100            0.029273786  
     25800   298.95228      1420.4722     -7.6057934      1000000        100            0.029273786  
     25900   294.82873      1467.8344      32.163407      1000000        100            0.029273786  
     26000   303.74181      1374.7604     -0.40800683     1000000        100            0.029273786  
     26100   301.46854      1345.7079      3.9405219      1000000        100            0.029273786  
     26200   291.68997      1397.444      -9.9677587      1000000        100            0.029273786  
     26300   294.17818      1401.4173      3.9524574      1000000        100            0.029273786  
     26400   294.70765      1437.5582      25.288869      1000000        100            0.029273786  
     26500   303.32695      1372.8016     -10.785589      1000000        100            0.029273786  
     26600   303.87555      1338.389       63.03247       1000000        100            0.029273786  
     26700   299.86165      1316.3437     -20.820777      1000000        100            0.029273786  
     26800   294.87809      1328.8455     -29.349177      1000000        100            0.029273786  
     26900   299.33258      1335.4014     -24.888252      1000000        100            0.029273786  
     27000   294.87661      1451.9399     -48.548965      1000000        100            0.029273786  
     27100   302.35021      1441.386      -9.178875       1000000        100            0.029273786  
     27200   304.53644      1379.7797      10.374272      1000000        100            0.029273786  
     27300   298.63115      1332.7322     -3.9484879      1000000        100            0.029273786  
     27400   291.59722      1331.8833     -12.050555      1000000        100            0.029273786  
     27500   296.28493      1322.7724     -2.6100631      1000000        100            0.029273786  
     27600   304.00219      1349.5792      4.481838       1000000        100            0.029273786  
     27700   302.20304      1427.1598      17.752226      1000000        100            0.029273786  
     27800   307.34556      1355.8125     -27.549682      1000000        100            0.029273786  
     27900   301.04693      1318.0946     -7.9736324      1000000        100            0.029273786  
     28000   292.44729      1342.9077      16.811891      1000000        100            0.029273786  
     28100   296.35137      1340.4594      17.2663        1000000        100            0.029273786  
     28200   304.60565      1347.3656     -5.9865435      1000000        100            0.029273786  
     28300   302.51369      1419.0856     -0.90026247     1000000        100            0.029273786  
     28400   303.50499      1385.8225     -26.988767      1000000        100            0.029273786  
     28500   293.90215      1391.2296     -7.3879383      1000000        100            0.029273786  
     28600   295.03613      1354.6174     -12.578027      1000000        100            0.029273786  
     28700   300.8688       1339.1202      11.723389      1000000        100            0.029273786  
     28800   303.99478      1361.6476      0.18487973     1000000        100            0.029273786  
     28900   301.27634      1386.2509     -21.245817      1000000        100            0.029273786  
     29000   299.63448      1370.7483      13.773748      1000000        100            0.029273786  
     29100   299.816        1338.0398      13.339725      1000000        100            0.029273786  
     29200   295.99126      1336.9117     -23.46762       1000000        100            0.029273786  
     29300   298.13613      1347.1502      44.380408      1000000        100            0.029273786  
     29400   308.95137      1312.7001      42.447953      1000000        100            0.029273786  
     29500   304.96204      1353.0394      6.2569071      1000000        100            0.029273786  
     29600   298.27219      1374.6934     -4.6774683      1000000        100            0.029273786  
     29700   300.97678      1332.0347      1.5072129      1000000        100            0.029273786  
     29800   302.92602      1339.8636     -19.482139      1000000        100            0.029273786  
     29900   300.23344      1368.6371     -2.7853367      1000000        100            0.029273786  
     30000   297.2775       1354.0097     -8.3756339      1000000        100            0.029273786  
     30100   297.97439      1328.0537     -21.772236      1000000        100            0.029273786  
     30200   302.56228      1340.9826     -26.155902      1000000        100            0.029273786  
     30300   310.8591       1342.867      -6.0961211      1000000        100            0.029273786  
     30400   305.62267      1352.9802     -7.2620926      1000000        100            0.029273786  
     30500   297.77117      1370.9266     -14.608345      1000000        100            0.029273786  
     30600   298.5832       1343.7991     -48.501548      1000000        100            0.029273786  
     30700   302.08976      1302.0635      34.374327      1000000        100            0.029273786  
     30800   298.33956      1353.5428      8.5314964      1000000        100            0.029273786  
     30900   301.97513      1399.2002     -60.115585      1000000        100            0.029273786  
     31000   303.4799       1417.8958      23.760543      1000000        100            0.029273786  
     31100   307.53975      1293.3461     -54.800247      1000000        100            0.029273786  
     31200   298.53318      1318.1526     -46.495083      1000000        100            0.029273786  
     31300   298.24817      1336.3903      12.715544      1000000        100            0.029273786  
     31400   301.10943      1353.222      -6.0797118      1000000        100            0.029273786  
     31500   301.41351      1399.4405     -46.886358      1000000        100            0.029273786  
     31600   307.9843       1342.5255     -15.76594       1000000        100            0.029273786  
     31700   298.84752      1315.3189      7.0083664      1000000        100            0.029273786  
     31800   295.83108      1304.2682     -12.742567      1000000        100            0.029273786  
     31900   297.57879      1326.352       41.841401      1000000        100            0.029273786  
     32000   297.0864       1403.0148     -8.1314525      1000000        100            0.029273786  
     32100   306.19296      1338.1754      6.6266704      1000000        100            0.029273786  
     32200   304.85519      1307.7098      37.34024       1000000        100            0.029273786  
     32300   304.22465      1292.3924      38.137012      1000000        100            0.029273786  
     32400   301.77216      1285.9469     -5.423672       1000000        100            0.029273786  
     32500   302.74598      1251.596       14.7273        1000000        100            0.029273786  
     32600   295.70416      1274.1446     -9.6287301      1000000        100            0.029273786  
     32700   288.65609      1322.2456     -18.584008      1000000        100            0.029273786  
     32800   301.0057       1297.7796     -28.804973      1000000        100            0.029273786  
     32900   308.05215      1277.5792     -40.00991       1000000        100            0.029273786  
     33000   301.80324      1303.1781     -20.862431      1000000        100            0.029273786  
     33100   296.90199      1262.8479     -9.6932813      1000000        100            0.029273786  
     33200   295.18802      1266.2682     -22.263383      1000000        100            0.029273786  
     33300   293.53436      1314.2649     -87.838673      1000000        100            0.029273786  
     33400   298.03066      1299.4178     -70.728891      1000000        100            0.029273786  
     33500   300.45631      1301.3494     -12.484944      1000000        100            0.029273786  
     33600   303.09013      1355.423      -34.144503      1000000        100            0.029273786  
     33700   308.34146      1320.1365     -23.271314      1000000        100            0.029273786  
     33800   297.28563      1318.9582      11.496611      1000000        100            0.029273786  
     33900   300.84621      1254.4042      6.4814421      1000000        100            0.029273786  
     34000   302.60326      1252.8052     -53.760093      1000000        100            0.029273786  
     34100   298.83083      1319.4793     -18.260442      1000000        100            0.029273786  
     34200   309.33605      1317.04        3.392334       1000000        100            0.029273786  
     34300   311.52327      1302.3807      10.177176      1000000        100            0.029273786  
     34400   301.5551       1282.2047      62.032142      1000000        100            0.029273786  
     34500   302.7664       1249.1606      5.5848617      1000000        100            0.029273786  
     34600   300.09591      1251.54        18.665738      1000000        100            0.029273786  
     34700   294.2764       1246.8082      1.5000026      1000000        100            0.029273786  
     34800   298.0702       1207.2101     -5.9541891      1000000        100            0.029273786  
     34900   307.3368       1238.1359     -5.4311143      1000000        100            0.029273786  
     35000   301.41945      1319.0489     -16.011901      1000000        100            0.029273786  
     35100   303.83752      1287.216       12.842365      1000000        100            0.029273786  
     35200   296.8205       1309.7324     -28.413816      1000000        100            0.029273786  
     35300   299.65273      1222.8366     -17.963362      1000000        100            0.029273786  
     35400   288.59867      1300.4716     -41.903396      1000000        100            0.029273786  
     35500   300.34626      1311.3026     -1.87082        1000000        100            0.029273786  
     35600   302.19833      1312.8787     -29.54059       1000000        100            0.029273786  
     35700   301.93982      1276.1381     -3.5888359      1000000        100            0.029273786  
     35800   299.06794      1234.4843      40.360917      1000000        100            0.029273786  
     35900   301.15308      1197.1548     -26.927544      1000000        100            0.029273786  
     36000   296.85576      1239.6885     -4.7561029      1000000        100            0.029273786  
     36100   300.08335      1230.8147      21.294354      1000000        100            0.029273786  
     36200   300.99913      1228.6631      17.209874      1000000        100            0.029273786  
     36300   301.33459      1217.1238      8.8306545      1000000        100            0.029273786  
     36400   303.30177      1184.2701      30.78197       1000000        100            0.029273786  
     36500   295.58164      1251.5079      3.5472244      1000000        100            0.029273786  
     36600   301.51371      1260.2782     -2.7358093      1000000        100            0.029273786  
     36700   298.33369      1327.0606     -13.048308      1000000        100            0.029273786  
     36800   300.14264      1275.5191     -8.3861509      1000000        100            0.029273786  
     36900   295.2562       1224.4422     -32.199426      1000000        100            0.029273786  
     37000   297.62247      1201.2198      33.642879      1000000        100            0.029273786  
     37100   295.50988      1258.5673     -11.591686      1000000        100            0.029273786  
     37200   294.29814      1302.8379      62.39339       1000000        100            0.029273786  
     37300   299.62973      1256.4549      25.985919      1000000        100            0.029273786  
     37400   305.9133       1176.7995     -51.854536      1000000        100            0.029273786  
     37500   300.24418      1205.3042      21.700102      1000000        100            0.029273786  
     37600   296.89908      1244.2437     -12.877981      1000000        100            0.029273786  
     37700   295.98546      1281.4165     -19.157659      1000000        100            0.029273786  
     37800   301.78731      1266.3472     -8.3181171      1000000        100            0.029273786  
     37900   299.05535      1305.0762     -17.56072       1000000        100            0.029273786  
     38000   302.12973      1229.2732     -18.909393      1000000        100            0.029273786  
     38100   296.01009      1221.1111     -24.8935        1000000        100            0.029273786  
     38200   297.1609       1203.8166     -11.785758      1000000        100            0.029273786  
     38300   297.46676      1238.8053     -36.389121      1000000        100            0.029273786  
     38400   299.94973      1289.5447      3.7319199      1000000        100            0.029273786  
     38500   306.32365      1246.3193      49.352443      1000000        100            0.029273786  
     38600   298.84197      1189.9766      48.104512      1000000        100            0.029273786  
     38700   292.93642      1237.1679     -15.234491      1000000        100            0.029273786  
     38800   292.79962      1294.362      -19.437086      1000000        100            0.029273786  
     38900   301.53614      1277.1082     -35.979784      1000000        100            0.029273786  
     39000   303.11628      1266.3546     -10.90903       1000000        100            0.029273786  
     39100   294.35641      1239.8154     -6.7941966      1000000        100            0.029273786  
     39200   299.97271      1171.0762      50.014361      1000000        100            0.029273786  
     39300   303.86611      1184.7514     -0.78133017     1000000        100            0.029273786  
     39400   301.90298      1260.4854      1.4000511      1000000        100            0.029273786  
     39500   301.84524      1281.529      -8.4619576      1000000        100            0.029273786  
     39600   298.70117      1248.4165      0.26040055     1000000        100            0.029273786  
     39700   292.75129      1214.0485      16.747278      1000000        100            0.029273786  
     39800   297.39692      1197.5779      80.537193      1000000        100            0.029273786  
     39900   297.89193      1244.4761      28.474364      1000000        100            0.029273786  
     40000   299.88033      1279.7177      33.612247      1000000        100            0.029273786  
     40100   301.10671      1297.317      -5.5466227      1000000        100            0.029273786  
     40200   292.90876      1321.5035      69.645073      1000000        100            0.029273786  
     40300   290.06254      1255.7874     -6.4684803      1000000        100            0.029273786  
     40400   295.52019      1225.4471      3.1226741      1000000        100            0.029273786  
     40500   301.08471      1313.52        51.40533       1000000        100            0.029273786  
     40600   308.26467      1234.4471      39.074936      1000000        100            0.029273786  
     40700   297.99135      1256.7104      14.779462      1000000        100            0.029273786  
     40800   301.11422      1203.8491      34.81714       1000000        100            0.029273786  
     40900   298.69867      1251.0369     -52.258939      1000000        100            0.029273786  
     41000   300.22525      1333.636      -63.752395      1000000        100            0.029273786  
     41100   304.77448      1306.0846     -5.782482       1000000        100            0.029273786  
     41200   301.95092      1276.8665     -64.293334      1000000        100            0.029273786  
     41300   300.86775      1255.6914     -19.822405      1000000        100            0.029273786  
     41400   293.8412       1318.875      -8.3728425      1000000        100            0.029273786  
     41500   293.46017      1330.8474     -37.839465      1000000        100            0.029273786  
     41600   304.60347      1271.2789     -29.582655      1000000        100            0.029273786  
     41700   302.18621      1321.7921      6.1417655      1000000        100            0.029273786  
     41800   305.50787      1239.9869      1.1365253      1000000        100            0.029273786  
     41900   298.03865      1224.8477     -25.581458      1000000        100            0.029273786  
     42000   299.54043      1196.1458      35.871677      1000000        100            0.029273786  
     42100   302.21449      1188.2435      66.066769      1000000        100            0.029273786  
     42200   298.63019      1240.1712      56.733227      1000000        100            0.029273786  
     42300   306.10118      1186.5455      50.414985      1000000        100            0.029273786  
     42400   304.63469      1205.0334      36.194804      1000000        100            0.029273786  
     42500   298.93814      1253.1054     -25.301258      1000000        100            0.029273786  
     42600   298.99746      1279.9008     -10.521492      1000000        100            0.029273786  
     42700   308.05882      1233.7307      29.113458      1000000        100            0.029273786  
     42800   294.52044      1299.0865     -24.761608      1000000        100            0.029273786  
     42900   293.67346      1233.26       -76.477446      1000000        100            0.029273786  
     43000   295.50935      1223.2732     -45.782946      1000000        100            0.029273786  
     43100   297.98688      1262.5824     -45.366335      1000000        100            0.029273786  
     43200   308.19162      1282.5414     -9.9753882      1000000        100            0.029273786  
     43300   303.31293      1311.4621      56.717172      1000000        100            0.029273786  
     43400   299.47562      1285.3881      26.818973      1000000        100            0.029273786  
     43500   303.81042      1191.0771     -4.7353147      1000000        100            0.029273786  
     43600   293.56859      1260.9946      19.395172      1000000        100            0.029273786  
     43700   301.81184      1233.3117     -1.2633376      1000000        100            0.029273786  
     43800   303.21422      1317.5271      14.520119      1000000        100            0.029273786  
     43900   305.66297      1290.0318     -36.861835      1000000        100            0.029273786  
     44000   300.52255      1274.7635      45.668065      1000000        100            0.029273786  
     44100   304.01303      1224.464       24.73217       1000000        100            0.029273786  
     44200   301.6012       1234.7066     -23.16122       1000000        100            0.029273786  
     44300   305.43164      1214.095      -42.417159      1000000        100            0.029273786  
     44400   302.89588      1296.8521      24.842518      1000000        100            0.029273786  
     44500   307.01182      1288.5082      50.504703      1000000        100            0.029273786  
     44600   303.80789      1231.5909     -16.687152      1000000        100            0.029273786  
     44700   295.82165      1230.492       9.6222145      1000000        100            0.029273786  
     44800   299.52047      1218.8966      21.602693      1000000        100            0.029273786  
     44900   293.94193      1326.3779     -1.441878       1000000        100            0.029273786  
     45000   306.24382      1265.0603     -11.254385      1000000        100            0.029273786  
     45100   303.03828      1263.1479      15.210041      1000000        100            0.029273786  
     45200   305.04773      1178.4706      27.655659      1000000        100            0.029273786  
     45300   299.65793      1218.6443      12.813187      1000000        100            0.029273786  
     45400   299.44687      1237.1539      34.616193      1000000        100            0.029273786  
     45500   300.34522      1257.6558      54.419886      1000000        100            0.029273786  
     45600   301.68721      1261.9572     -17.819821      1000000        100            0.029273786  
     45700   298.00794      1238.8011     -44.913456      1000000        100            0.029273786  
     45800   291.20474      1234.8271      41.748035      1000000        100            0.029273786  
     45900   296.09435      1233.2475     -22.398536      1000000        100            0.029273786  
     46000   300.52886      1262.8337     -42.064211      1000000        100            0.029273786  
     46100   306.31248      1215.4124     -10.830811      1000000        100            0.029273786  
     46200   294.37413      1283.0183     -30.071964      1000000        100            0.029273786  
     46300   296.97737      1244.1998     -25.78472       1000000        100            0.029273786  
     46400   305.99157      1167.9648     -25.068559      1000000        100            0.029273786  
     46500   303.54079      1199.5761     -22.987873      1000000        100            0.029273786  
     46600   300.54744      1236.5365     -38.192387      1000000        100            0.029273786  
     46700   299.92817      1231.2254      40.962189      1000000        100            0.029273786  
     46800   300.02602      1218.0492     -9.0585848      1000000        100            0.029273786  
     46900   297.90162      1238.0133     -26.704788      1000000        100            0.029273786  
     47000   297.67298      1302.6429     -44.074834      1000000        100            0.029273786  
     47100   303.56561      1271.8237      17.890397      1000000        100            0.029273786  
     47200   296.1075       1244.2038      39.18506       1000000        100            0.029273786  
     47300   297.59985      1198.6073      1.5633088      1000000        100            0.029273786  
     47400   299.39729      1223.0033     -40.616057      1000000        100            0.029273786  
     47500   296.16745      1288.86       -12.172678      1000000        100            0.029273786  
     47600   302.4495       1243.9979     -41.364234      1000000        100            0.029273786  
     47700   296.65949      1207.4805      5.0143966      1000000        100            0.029273786  
     47800   288.00562      1208.6643      4.6793322      1000000        100            0.029273786  
     47900   297.16206      1200.2739     -12.942154      1000000        100            0.029273786  
     48000   299.94936      1245.0156     -5.1572483      1000000        100            0.029273786  
     48100   302.695        1236.4814     -6.7276261      1000000        100            0.029273786  
     48200   298.72929      1225.181       35.344118      1000000        100            0.029273786  
     48300   291.54297      1200.0843      7.4056369      1000000        100            0.029273786  
     48400   298.44336      1130.9882     -56.621964      1000000        100            0.029273786  
     48500   295.07423      1222.4967      24.427021      1000000        100            0.029273786  
     48600   292.15742      1273.1201     -41.592341      1000000        100            0.029273786  
     48700   304.92262      1180.836       9.6218823      1000000        100            0.029273786  
     48800   301.45677      1200.3792     -35.936108      1000000        100            0.029273786  
     48900   292.136        1269.3        -15.117601      1000000        100            0.029273786  
     49000   300.51266      1204.5854     -16.338524      1000000        100            0.029273786  
     49100   303.72958      1191.1788     -8.1365605      1000000        100            0.029273786  
     49200   299.73888      1245.2852      27.600751      1000000        100            0.029273786  
     49300   300.17604      1215.1758      33.486982      1000000        100            0.029273786  
     49400   297.43604      1178.3188     -11.719611      1000000        100            0.029273786  
     49500   291.27555      1218.8503     -23.167721      1000000        100            0.029273786  
     49600   302.9826       1224.84        29.585608      1000000        100            0.029273786  
     49700   304.29919      1248.4308     -32.755794      1000000        100            0.029273786  
     49800   303.13985      1222.2588     -8.2126231      1000000        100            0.029273786  
     49900   298.03075      1196.7537     -0.91666928     1000000        100            0.029273786  
     50000   300.19833      1170.2657     -21.704797      1000000        100            0.029273786  
     50100   297.71118      1216.716      -29.229913      1000000        100            0.029273786  
     50200   303.96536      1181.2023     -19.704414      1000000        100            0.029273786  
     50300   303.65004      1178.3916     -7.3558037      1000000        100            0.029273786  
     50400   298.45788      1198.4623      35.655834      1000000        100            0.029273786  
     50500   299.37248      1149.2359      8.579409       1000000        100            0.029273786  
     50600   295.66488      1159.08       -4.7626124      1000000        100            0.029273786  
     50700   299.70906      1181.134       8.5033139      1000000        100            0.029273786  
     50800   304.78501      1192.9629     -32.105268      1000000        100            0.029273786  
     50900   306.2867       1171.6113      14.502318      1000000        100            0.029273786  
     51000   302.22942      1114.7171      9.2455435      1000000        100            0.029273786  
     51100   294.6103       1155.2731     -13.335186      1000000        100            0.029273786  
     51200   299.02405      1178.1487     -3.3287852      1000000        100            0.029273786  
     51300   297.83849      1222.1624     -7.1185148      1000000        100            0.029273786  
     51400   296.85876      1223.0047     -38.582157      1000000        100            0.029273786  
     51500   301.05318      1198.8439     -40.28686       1000000        100            0.029273786  
     51600   299.20413      1245.6089     -6.8168799      1000000        100            0.029273786  
     51700   308.04086      1219.2275      1.0540271      1000000        100            0.029273786  
     51800   303.75126      1237.0129      57.031518      1000000        100            0.029273786  
     51900   301.8979       1156.1524     -43.677669      1000000        100            0.029273786  
     52000   292.97154      1200.433      -8.0376124      1000000        100            0.029273786  
     52100   297.20152      1184.204       12.976592      1000000        100            0.029273786  
     52200   307.53582      1172.8836     -0.9389385      1000000        100            0.029273786  
     52300   309.89246      1192.034      -9.2274424      1000000        100            0.029273786  
     52400   306.51693      1189.8718     -1.596549       1000000        100            0.029273786  
     52500   300.54463      1205.021       21.97913       1000000        100            0.029273786  
     52600   299.16282      1202.6759      6.082976       1000000        100            0.029273786  
     52700   301.83885      1194.6429     -19.512293      1000000        100            0.029273786  
     52800   301.41865      1226.0717     -23.198582      1000000        100            0.029273786  
     52900   311.75853      1182.1724      61.301702      1000000        100            0.029273786  
     53000   300.21053      1271.2451     -5.4381907      1000000        100            0.029273786  
     53100   304.2786       1158.9974      1.0555887      1000000        100            0.029273786  
     53200   294.16194      1190.1057     -34.776546      1000000        100            0.029273786  
     53300   295.35954      1194.4711     -30.567321      1000000        100            0.029273786  
     53400   294.86767      1232.7945      10.076098      1000000        100            0.029273786  
     53500   301.38893      1204.0598      22.728429      1000000        100            0.029273786  
     53600   295.9899       1251.4746     -5.3220937      1000000        100            0.029273786  
     53700   297.41909      1246.6546      24.478701      1000000        100            0.029273786  
     53800   301.80789      1202.2792      30.191104      1000000        100            0.029273786  
     53900   297.61084      1179.1531      1.9318988      1000000        100            0.029273786  
     54000   296.32185      1131.328       12.161172      1000000        100            0.029273786  
     54100   290.70586      1193.2656      30.000024      1000000        100            0.029273786  
     54200   298.21566      1235.7152      0.22249568     1000000        100            0.029273786  
     54300   299.49213      1245.6847     -5.5197849      1000000        100            0.029273786  
     54400   301.74767      1199.5566      30.080403      1000000        100            0.029273786  
     54500   296.49025      1187.5931      2.0693009      1000000        100            0.029273786  
     54600   294.83672      1188.4406      48.881856      1000000        100            0.029273786  
     54700   295.96891      1263.4972     -9.1387417      1000000        100            0.029273786  
     54800   308.44488      1220.1309     -13.52079       1000000        100            0.029273786  
     54900   300.26434      1240.3602     -4.2852364      1000000        100            0.029273786  
     55000   297.52018      1195.9057     -19.412679      1000000        100            0.029273786  
     55100   296.78788      1217.6127     -48.592129      1000000        100            0.029273786  
     55200   301.33838      1221.9474     -36.095003      1000000        100            0.029273786  
     55300   302.59018      1262.5304     -29.986389      1000000        100            0.029273786  
     55400   304.18212      1308.9766     -30.991532      1000000        100            0.029273786  
     55500   304.24273      1296.9326     -47.967686      1000000        100            0.029273786  
     55600   295.99459      1267.7659     -43.457226      1000000        100            0.029273786  
     55700   294.29407      1241.6698     -87.471944      1000000        100            0.029273786  
     55800   299.61113      1212.0314     -2.136757       1000000        100            0.029273786  
     55900   302.78202      1258.2971      2.8771266      1000000        100            0.029273786  
     56000   302.66147      1296.7772      5.1452975      1000000        100            0.029273786  
     56100   301.05554      1187.7637      34.460523      1000000        100            0.029273786  
     56200   294.43589      1205.0354     -2.6076051      1000000        100            0.029273786  
     56300   297.72477      1206.3421      36.523305      1000000        100            0.029273786  
     56400   304.02781      1194.1222     -22.456918      1000000        100            0.029273786  
     56500   306.17293      1197.2094     -36.961916      1000000        100            0.029273786  
     56600   301.46374      1157.0278     -14.275012      1000000        100            0.029273786  
     56700   293.52314      1161.9185     -23.891927      1000000        100            0.029273786  
     56800   293.04299      1199.5804      25.5889        1000000        100            0.029273786  
     56900   304.88896      1159.9926     -4.9716128      1000000        100            0.029273786  
     57000   302.96584      1181.4733     -38.814241      1000000        100            0.029273786  
     57100   297.26396      1205.5141     -2.604891       1000000        100            0.029273786  
     57200   300.44086      1176.5204      12.067158      1000000        100            0.029273786  
     57300   297.15529      1221.3468      0.82533579     1000000        100            0.029273786  
     57400   297.40316      1247.6        -42.550011      1000000        100            0.029273786  
     57500   300.09696      1265.1802     -5.2025012      1000000        100            0.029273786  
     57600   303.27064      1280.6266     -0.97475325     1000000        100            0.029273786  
     57700   306.97781      1197.7327      6.5333822      1000000        100            0.029273786  
     57800   299.57002      1181.8597     -15.753851      1000000        100            0.029273786  
     57900   296.65898      1198.998      -35.5722        1000000        100            0.029273786  
     58000   300.43619      1216.7065     -20.352847      1000000        100            0.029273786  
     58100   305.29634      1219.9913     -35.581545      1000000        100            0.029273786  
     58200   295.08509      1257.4205     -10.491446      1000000        100            0.029273786  
     58300   291.61293      1201.8582     -21.20968       1000000        100            0.029273786  
     58400   297.93222      1148.7825      18.464736      1000000        100            0.029273786  
     58500   300.90306      1202.1753      39.136225      1000000        100            0.029273786  
     58600   310.49238      1164.9533      61.824048      1000000        100            0.029273786  
     58700   305.62069      1176.7157     -0.75077237     1000000        100            0.029273786  
     58800   301.03121      1163.3981      5.6170057      1000000        100            0.029273786  
     58900   296.16333      1200.7646     -60.415394      1000000        100            0.029273786  
     59000   300.24057      1181.8393     -22.240621      1000000        100            0.029273786  
     59100   305.28194      1156.3771     -43.646456      1000000        100            0.029273786  
     59200   297.52017      1255.6004      22.460171      1000000        100            0.029273786  
     59300   303.49141      1280.7135      37.178002      1000000        100            0.029273786  
     59400   306.68985      1260.0877     -29.759288      1000000        100            0.029273786  
     59500   300.58663      1183.4256      10.082634      1000000        100            0.029273786  
     59600   293.80098      1196.5221     -11.084885      1000000        100            0.029273786  
     59700   301.19762      1143.296       30.132142      1000000        100            0.029273786  
     59800   306.53004      1167.1008      0.11559017     1000000        100            0.029273786  
     59900   308.50765      1169.4271     -17.25212       1000000        100            0.029273786  
     60000   298.87536      1177.6281      5.6030837      1000000        100            0.029273786  
     60100   296.87107      1122.8561     -33.12164       1000000        100            0.029273786  
     60200   292.68278      1181.2746     -7.799468       1000000        100            0.029273786  
     60300   299.39308      1194.0064     -43.111051      1000000        100            0.029273786  
     60400   307.98357      1151.2163     -46.721485      1000000        100            0.029273786  
     60500   297.83615      1209.1208     -3.0067377      1000000        100            0.029273786  
     60600   295.04494      1162.0606     -50.027907      1000000        100            0.029273786  
     60700   283.45098      1206.7049     -5.7555551      1000000        100            0.029273786  
     60800   298.80835      1140.8576      3.8615905      1000000        100            0.029273786  
     60900   300.38754      1209.2776     -17.74552       1000000        100            0.029273786  
     61000   303.9137       1173.4562     -15.011101      1000000        100            0.029273786  
     61100   302.30645      1180.2033     -14.598493      1000000        100            0.029273786  
     61200   301.56478      1167.8982     -11.019416      1000000        100            0.029273786  
     61300   295.12723      1183.4195     -37.981132      1000000        100            0.029273786  
     61400   304.48313      1104.374       7.3489475      1000000        100            0.029273786  
     61500   296.88269      1203.7609     -77.931045      1000000        100            0.029273786  
     61600   308.07348      1165.3703     -44.940484      1000000        100            0.029273786  
     61700   307.58415      1170.1411      21.914384      1000000        100            0.029273786  
     61800   298.8595       1138.5337     -10.312998      1000000        100            0.029273786  
     61900   298.13663      1127.5165      45.34653       1000000        100            0.029273786  
     62000   298.17925      1155.4018      51.609434      1000000        100            0.029273786  
     62100   298.57806      1197.8119      69.476002      1000000        100            0.029273786  
     62200   311.3426       1149.8304      11.086528      1000000        100            0.029273786  
     62300   311.21395      1202.6117     -13.932952      1000000        100            0.029273786  
     62400   295.9686       1238.5725     -45.465283      1000000        100            0.029273786  
     62500   302.57283      1126.2673      1.0344493      1000000        100            0.029273786  
     62600   296.54845      1167.8294     -15.051362      1000000        100            0.029273786  
     62700   299.77287      1192.9788     -36.88726       1000000        100            0.029273786  
     62800   304.99105      1218.2144     -36.062593      1000000        100            0.029273786  
     62900   298.96775      1254.6729     -36.0182        1000000        100            0.029273786  
     63000   304.59899      1131.7244     -3.6466661      1000000        100            0.029273786  
     63100   298.41281      1114.7189     -0.31146279     1000000        100            0.029273786  
     63200   301.04864      1123.0847     -16.270846      1000000        100            0.029273786  
     63300   303.33573      1173.7346     -21.612863      1000000        100            0.029273786  
     63400   306.20341      1178.3239     -10.566989      1000000        100            0.029273786  
     63500   298.37782      1189.8812     -62.666334      1000000        100            0.029273786  
     63600   297.87888      1128.2495     -32.725943      1000000        100            0.029273786  
     63700   294.57392      1149.3812      31.120384      1000000        100            0.029273786  
     63800   295.32184      1176.5502     -16.647684      1000000        100            0.029273786  
     63900   311.13816      1089.8946     -18.169166      1000000        100            0.029273786  
     64000   312.09017      1203.9463      33.048253      1000000        100            0.029273786  
     64100   307.50888      1215.5857     -45.629877      1000000        100            0.029273786  
     64200   304.05119      1148.5791     -17.471992      1000000        100            0.029273786  
     64300   296.97607      1151.9026      32.883067      1000000        100            0.029273786  
     64400   295.6773       1165.7657     -19.809874      1000000        100            0.029273786  
     64500   303.34288      1164.8519      10.89116       1000000        100            0.029273786  
     64600   304.86698      1214.4089      25.559585      1000000        100            0.029273786  
     64700   304.21263      1200.5491      42.981122      1000000        100            0.029273786  
     64800   302.8825       1177.2481     -23.814911      1000000        100            0.029273786  
     64900   301.53973      1169.7038     -59.874592      1000000        100            0.029273786  
     65000   297.90545      1170.5304      1.7235158      1000000        100            0.029273786  
     65100   299.38247      1165.9411     -50.604927      1000000        100            0.029273786  
     65200   301.70554      1234.1942     -70.958805      1000000        100            0.029273786  
     65300   302.80792      1252.1996     -30.788047      1000000        100            0.029273786  
     65400   301.00741      1210.1568     -50.069994      1000000        100            0.029273786  
     65500   298.53426      1146.5179     -7.3820513      1000000        100            0.029273786  
     65600   295.23055      1175.4054      40.992428      1000000        100            0.029273786  
     65700   298.08866      1179.8162      30.952021      1000000        100            0.029273786  
     65800   303.2418       1170.6264     -1.0797373      1000000        100            0.029273786  
     65900   302.19928      1199.561      -12.718886      1000000        100            0.029273786  
     66000   303.84878      1165.315      -3.4889498      1000000        100            0.029273786  
     66100   296.8203       1133.694      -3.6820801      1000000        100            0.029273786  
     66200   297.49799      1098.4985     -38.137863      1000000        100            0.029273786  
     66300   297.25256      1131.0944     -1.6279109      1000000        100            0.029273786  
     66400   303.44354      1164.8327      14.807009      1000000        100            0.029273786  
     66500   304.07949      1199.6647     -46.264772      1000000        100            0.029273786  
     66600   300.63455      1202.5516     -0.13372581     1000000        100            0.029273786  
     66700   307.31013      1104.881      -8.0072725      1000000        100            0.029273786  
     66800   295.52529      1178.5666     -11.596497      1000000        100            0.029273786  
     66900   300.16709      1148.0856      15.116974      1000000        100            0.029273786  
     67000   301.75889      1243.5263      37.002025      1000000        100            0.029273786  
     67100   306.99398      1221.6171      35.324278      1000000        100            0.029273786  
     67200   305.27311      1171.1426      45.890354      1000000        100            0.029273786  
     67300   299.84428      1159.5012      21.000636      1000000        100            0.029273786  
     67400   297.7033       1171.1529      8.2240113      1000000        100            0.029273786  
     67500   302.96074      1148.4438     -19.987823      1000000        100            0.029273786  
     67600   304.84332      1144.6198     -42.770126      1000000        100            0.029273786  
     67700   299.40958      1150.7585      11.088749      1000000        100            0.029273786  
     67800   293.32038      1149.2461      20.6159        1000000        100            0.029273786  
     67900   301.81231      1078.9212      3.5597396      1000000        100            0.029273786  
     68000   304.05867      1121.2957      37.748056      1000000        100            0.029273786  
     68100   309.13496      1144.6083      46.525438      1000000        100            0.029273786  
     68200   302.05626      1189.6359      0.86972329     1000000        100            0.029273786  
     68300   299.55848      1150.1266      10.80156       1000000        100            0.029273786  
     68400   293.85971      1126.6114     -27.929591      1000000        100            0.029273786  
     68500   293.36075      1145.046      -7.0415109      1000000        100            0.029273786  
     68600   299.76678      1146.3548      7.4578554      1000000        100            0.029273786  
     68700   304.75121      1156.8966      11.235126      1000000        100            0.029273786  
     68800   303.03009      1217.7926     -12.86749       1000000        100            0.029273786  
     68900   302.01249      1225.6674     -9.6717034      1000000        100            0.029273786  
     69000   297.35237      1158.1395      21.019673      1000000        100            0.029273786  
     69100   288.98971      1203.7216      54.829024      1000000        100            0.029273786  
     69200   306.19832      1107.3387      9.7762847      1000000        100            0.029273786  
     69300   302.52811      1196.2141      2.2527826      1000000        100            0.029273786  
     69400   298.70789      1235.9397      18.803506      1000000        100            0.029273786  
     69500   297.42948      1225.7225     -9.9051681      1000000        100            0.029273786  
     69600   300.85869      1176.2623      51.82093       1000000        100            0.029273786  
     69700   292.93914      1152.6082     -14.502828      1000000        100            0.029273786  
     69800   292.78666      1121.9543      37.605973      1000000        100            0.029273786  
     69900   300.32281      1142.5584      38.520585      1000000        100            0.029273786  
     70000   303.44152      1167.0707     -12.353041      1000000        100            0.029273786  
     70100   307.2682       1162.9243     -26.820632      1000000        100            0.029273786  
     70200   298.80785      1231.0553      0.43388435     1000000        100            0.029273786  
     70300   299.39667      1208.8025      10.840304      1000000        100            0.029273786  
     70400   298.39452      1199.8922      11.046941      1000000        100            0.029273786  
     70500   297.13863      1237.131       23.414489      1000000        100            0.029273786  
     70600   306.47678      1219.8339     -14.88079       1000000        100            0.029273786  
     70700   304.81778      1251.6926     -27.65927       1000000        100            0.029273786  
     70800   302.48504      1186.5087     -31.434369      1000000        100            0.029273786  
     70900   291.77175      1216.7386     -21.720399      1000000        100            0.029273786  
     71000   296.10279      1193.2202     -25.845409      1000000        100            0.029273786  
     71100   303.05704      1168.9354     -7.182613       1000000        100            0.029273786  
     71200   304.88924      1232.1979     -22.647964      1000000        100            0.029273786  
     71300   306.36981      1279.7847      5.7383502      1000000        100            0.029273786  
     71400   300.49932      1239.912      -46.700899      1000000        100            0.029273786  
     71500   296.59612      1188.0804     -25.990356      1000000        100            0.029273786  
     71600   303.23133      1130.7259      10.365668      1000000        100            0.029273786  
     71700   304.79461      1183.4789     -33.722544      1000000        100            0.029273786  
     71800   304.61723      1228.1477     -28.653688      1000000        100            0.029273786  
     71900   301.17441      1237.1438     -38.757859      1000000        100            0.029273786  
     72000   298.80559      1167.3508     -4.4690021      1000000        100            0.029273786  
     72100   291.04399      1186.8897     -24.953225      1000000        100            0.029273786  
     72200   296.98654      1180.6974     -3.9405097      1000000        100            0.029273786  
     72300   294.25516      1235.2952     -4.5304965      1000000        100            0.029273786  
     72400   300.61041      1204.9739     -26.543262      1000000        100            0.029273786  
     72500   300.60167      1229.0685      40.839075      1000000        100            0.029273786  
     72600   303.38047      1260.6673      7.018263       1000000        100            0.029273786  
     72700   298.08037      1340.6973     -62.854073      1000000        100            0.029273786  
     72800   300.47509      1230.9943      18.826273      1000000        100            0.029273786  
     72900   293.511        1244.7164      2.3257795      1000000        100            0.029273786  
     73000   293.28654      1255.2681      15.48846       1000000        100            0.029273786  
     73100   300.8242       1253.3264     -39.291826      1000000        100            0.029273786  
     73200   309.91532      1242.2078     -46.143529      1000000        100            0.029273786  
     73300   309.24923      1223.1915     -28.744019      1000000        100            0.029273786  
     73400   301.7894       1246.8678     -18.478234      1000000        100            0.029273786  
     73500   300.57232      1203.9912     -40.075917      1000000        100            0.029273786  
     73600   297.1206       1191.6293     -15.335896      1000000        100            0.029273786  
     73700   300.83163      1155.4105      18.015015      1000000        100            0.029273786  
     73800   307.3934       1209.4111      74.585948      1000000        100            0.029273786  
     73900   306.48776      1246.6973      4.4454254      1000000        100            0.029273786  
     74000   298.96354      1245.6327      27.592899      1000000        100            0.029273786  
[...]
   1187000   301.4195       707.00973      628.78188      25230.018      29.329581      1.1602761    
   1187100   295.22473      826.15101      83.851693      24901.933      29.201894      1.1755628    
   1187200   310.10879      760.15486      645.63858      25001.288      29.24068       1.1708911    
   1187300   303.88869      758.34666      218.40963      25145.713      29.296876      1.1641661    
   1187400   296.16629      767.09927     -2294.0945      25140.103      29.294697      1.1644259    
   1187500   294.38644      783.96958      1140.829       24905.687      29.203362      1.1753856    
   1187600   301.64308      741.89229     -1583.8622      24837.184      29.176562      1.1786274    
   1187700   304.62882      749.11207     -232.30692      25289.316      29.352541      1.1575555    
   1187800   303.1443       761.17205     -550.48684      25096.401      29.277713      1.1664535    
   1187900   298.35818      757.6416      -1628.267       25200.242      29.318038      1.161647     
   1188000   295.78462      734.6432      -1388.179       25167.515      29.305341      1.1631576    
   1188100   298.95809      715.96307      1130.0229      25182.334      29.311092      1.1624731    
   1188200   306.83662      723.46217      1300.4452      25077.404      29.270324      1.1673372    
   1188300   308.14145      753.5864       118.41874      24916.78       29.207697      1.1748623    
   1188400   303.12021      735.02884     -958.60245      24760.583      29.146537      1.1822737    
   1188500   302.49079      673.19893     -1243.7358      24851.015      29.181977      1.1779715    
   1188600   298.02463      709.59124     -148.70155      24945.31       29.21884       1.1735186    
   1188700   299.85831      699.36881      3190.9858      24825.687      29.172059      1.1791733    
   1188800   304.84598      680.21702      1102.5124      24883.165      29.194556      1.1764495    
   1188900   301.30675      779.81326     -82.866583      25178.623      29.309652      1.1626444    
   1189000   298.66556      855.14009     -528.89005      25179.995      29.310184      1.1625811    
   1189100   299.20406      825.47271      42.895516      25260.372      29.341338      1.1588818    
   1189200   290.26699      781.83015      345.62969      25294.229      29.354441      1.1573306    
   1189300   297.66864      720.61071     -369.77648      25073.813      29.268926      1.1675044    
   1189400   298.47095      763.11647      850.26872      25129.019      29.290392      1.1649395    
   1189500   305.12718      737.74508      707.53127      24998.514      29.239598      1.1710211    
   1189600   296.80256      737.38471     -1285.479       24779.943      29.154131      1.18135      
   1189700   297.24579      658.07339      774.87153      24855.475      29.183723      1.1777601    
   1189800   293.79568      716.44498      1549.7717      24859.797      29.185414      1.1775553    
   1189900   303.85675      685.44884     -1728.4659      24785.237      29.156207      1.1810977    
   1190000   299.71437      733.34349     -251.51591      24675.221      29.113004      1.1863637    
   1190100   299.37856      744.5753      -1461.2797      24867.299      29.18835       1.1772001    
   1190200   296.91313      786.53767      1866.6136      24854.077      29.183176      1.1778263    
   1190300   310.73068      709.72006      261.07282      24839.66       29.177532      1.1785099    
   1190400   302.94533      856.43668      817.38899      24938.087      29.21602       1.1738585    
   1190500   306.91677      772.10562     -432.04644      24981.384      29.232918      1.171824     
   1190600   297.19569      775.8833       907.2304       25010.191      29.24415       1.1704743    
   1190700   296.83128      756.8235      -664.92531      25069.068      29.26708       1.1677253    
   1190800   298.65025      753.84158     -1491.1267      25028.794      29.251399      1.1696043    
   1190900   301.97269      784.17448      188.68106      24725.758      29.132866      1.1839388    
   1191000   303.48914      822.49358      1533.4442      24695.583      29.12101       1.1853855    
   1191100   308.54068      705.82215      1158.9573      24978.352      29.231735      1.1719663    
   1191200   298.76869      707.57685      795.46485      24946.803      29.219423      1.1734484    
   1191300   294.90096      754.14249     -989.89465      25238.072      29.332701      1.1599058    
   1191400   296.06363      819.70856     -231.26198      25368.19       29.383024      1.1539564    
   1191500   305.07889      788.89147     -174.9621       25216.537      29.324356      1.1608964    
   1191600   300.62439      808.39845     -322.44667      25191.871      29.314791      1.162033     
   1191700   296.69238      770.73199     -673.85866      25038.644      29.255236      1.1691442    
   1191800   291.38578      788.89468     -826.09437      25243.74       29.334897      1.1596454    
   1191900   296.83588      757.89078      1296.5998      25152.991      29.299703      1.1638292    
   1192000   295.70612      811.42992      30.233333      24958.076      29.223823      1.1729184    
   1192100   304.37535      765.8063      -545.62398      25048.796      29.259189      1.1686704    
   1192200   304.94594      793.27246      2589.7144      25007.484      29.243095      1.170601     
   1192300   301.55136      785.10824     -1516.9787      25155.419      29.300645      1.1637169    
   1192400   296.90961      738.34859      29.565308      24913.039      29.206235      1.1750387    
   1192500   295.01742      726.8547       667.1871       25108.429      29.282389      1.1658948    
   1192600   296.22978      765.84216     -183.81444      25176.823      29.308953      1.1627276    
   1192700   297.46142      827.5358       463.06046      25254.845      29.339198      1.1591354    
   1192800   299.01327      823.52541     -171.14831      25273.025      29.346236      1.1583016    
   1192900   306.78376      732.79459     -1539.224       25383.396      29.388894      1.1532651    
   1193000   294.01577      774.96811     -192.42369      25320.596      29.364637      1.1561255    
   1193100   295.99173      745.54345     -198.17257      25232.491      29.330539      1.1601623    
   1193200   295.43919      774.45499      724.40796      25301.695      29.357329      1.1569891    
   1193300   298.46415      761.62808     -1569.0278      25050.315      29.25978       1.1685995    
   1193400   303.36755      722.29879      1353.0956      24793.419      29.159415      1.1807079    
   1193500   304.01378      716.74415      1637.5515      24922.032      29.209748      1.1746147    
   1193600   299.09482      739.75001     -2419.9577      25064.461      29.265287      1.16794      
   1193700   298.59725      698.87291      1553.7613      24910.417      29.20521       1.1751624    
   1193800   301.39105      685.78177     -1671.1509      25221.093      29.326122      1.1606866    
   1193900   302.1801       766.56314     -1205.7275      25171.031      29.306706      1.1629951    
   1194000   297.96343      822.9372       168.43439      25197.111      29.316824      1.1617914    
   1194100   301.50918      771.65466      312.5562       25287.92       29.352         1.1576194    
   1194200   297.10741      746.73175     -216.59016      25249.788      29.337239      1.1593676    
   1194300   295.65409      663.51449      1788.7415      25093.698      29.276662      1.1665792    
   1194400   291.45354      630.42177      382.94728      24889.411      29.196998      1.1761542    
   1194500   292.3287       708.97549     -1473.9984      25036.157      29.254267      1.1692604    
   1194600   298.87827      714.15468     -778.80452      25110.126      29.283049      1.165816     
   1194700   300.94921      754.84975      601.60018      25052.501      29.260632      1.1684976    
   1194800   305.60577      747.46078     -1875.9528      25173.323      29.307595      1.1628892    
   1194900   299.98759      760.23399      2769.1515      25014.773      29.245936      1.1702599    
   1195000   293.13961      745.31197      52.203203      24921.061      29.209369      1.1746605    
   1195100   297.24287      689.6088      -1564.2083      25161.429      29.302979      1.1634389    
   1195200   302.65064      758.63049     -2234.9182      24921.605      29.209582      1.1746348    
   1195300   303.6683       775.98999     -2338.6304      24970.764      29.228775      1.1723224    
   1195400   299.14094      757.72171     -284.0674       25120.091      29.286922      1.1653535    
   1195500   297.58091      730.60936      1799.7382      25115.045      29.284961      1.1655876    
   1195600   294.74826      769.32732     -112.09697      25121.998      29.287663      1.1652651    
   1195700   304.17686      796.97038     -1310.2276      25056.699      29.262266      1.1683018    
   1195800   309.4088       768.88355     -2114.7195      25215.402      29.323916      1.1609486    
   1195900   299.71414      793.4541      -1094.4372      25034.643      29.253677      1.1693311    
   1196000   298.6775       752.44836      691.76707      25106.211      29.281527      1.1659978    
   1196100   301.33172      714.08945     -175.0938       24954.914      29.222589      1.173067     
   1196200   302.6944       710.75003      1045.0556      24863.229      29.186757      1.1773928    
   1196300   307.46526      754.57497     -1729.0075      24958.239      29.223887      1.1729107    
   1196400   308.34878      801.39399     -26.053556      24860.923      29.185855      1.177502     
   1196500   302.96783      766.05297      26.528183      25107.789      29.282141      1.1659245    
   1196600   296.44324      775.45566      430.20556      25127.576      29.289831      1.1650064    
   1196700   298.75005      740.56313      75.555096      24879.539      29.193138      1.1766209    
   1196800   301.39026      712.6545      -1159.3356      24995.627      29.238472      1.1711563    
   1196900   298.87083      695.45601     -1056.3849      24962.616      29.225595      1.1727051    
   1197000   292.75157      702.05449      554.12125      25282.571      29.349931      1.1578643    
   1197100   297.29492      715.93661     -35.339589      24933.038      29.214048      1.1740962    
   1197200   306.93946      724.59575      80.124309      24868.449      29.188799      1.1771456    
   1197300   303.15127      735.65456     -1084.9607      24786.361      29.156648      1.1810441    
   1197400   297.30887      724.13391      1450.9841      25135.912      29.29307       1.16462      
   1197500   300.27245      681.96771      492.07435      24866.66       29.1881        1.1772303    
   1197600   296.5484       725.7702      -1778.0892      25161.03       29.302824      1.1634574    
   1197700   310.73604      713.20299     -2151.27        25160.717      29.302702      1.1634718    
   1197800   307.44943      781.6409      -725.01863      25032.406      29.252806      1.1694356    
   1197900   299.9445       781.2181       722.63349      25247.401      29.336315      1.1594772    
   1198000   298.37515      747.9822       502.21824      25266.216      29.343601      1.1586138    
   1198100   296.21583      749.42588     -583.97103      25129.084      29.290417      1.1649365    
   1198200   299.1261       725.67814      1866.5759      25188.979      29.313669      1.1621665    
   1198300   305.36193      676.8857      -592.41868      25238.226      29.332761      1.1598987    
   1198400   303.84714      734.56005     -1144.1585      25192.287      29.314953      1.1620138    
   1198500   310.36897      713.53564     -985.40457      25076.383      29.269926      1.1673847    
   1198600   302.17046      746.72035     -529.6813       24880.571      29.193541      1.1765721    
   1198700   296.48089      707.77077      283.69829      24944.435      29.218498      1.1735598    
   1198800   296.75742      707.0636       1520.9997      24999.091      29.239823      1.170994     
   1198900   297.82149      735.69533      844.95294      24984.036      29.233952      1.1716996    
   1199000   300.78553      731.00437     -1099.2237      25008.766      29.243595      1.170541     
   1199100   296.00945      775.50063      1922.572       24963.488      29.225936      1.1726641    
   1199200   298.89569      750.71075      934.74237      25163.763      29.303885      1.163331     
   1199300   298.21356      758.52653      2223.5273      25171.247      29.30679       1.1629851    
   1199400   301.08581      760.15906     -1054.1707      25329.176      29.367954      1.1557338    
   1199500   306.30291      775.75425     -219.29956      25024.197      29.249608      1.1698192    
   1199600   306.73351      795.28734     -886.31944      25016.318      29.246538      1.1701876    
   1199700   300.73702      747.24257      30.36198       25247.724      29.33644       1.1594624    
   1199800   298.13735      723.06        -949.48029      25264.168      29.342808      1.1587077    
   1199900   292.70872      789.52569      1445.9599      25078.389      29.270707      1.1672913    
   1200000   299.0556       800.20648      1042.4106      25360.704      29.380134      1.154297     
   1200100   310.34004      759.99691      1659.3738      25214.047      29.323391      1.161011     
   1200200   307.2462       748.34597      1358.8276      25143.759      29.296117      1.1642566    
   1200300   304.39891      729.89333     -2769.6         25147.314      29.297498      1.1640919    
   1200400   298.51008      760.48502      1624.4764      25152.182      29.299389      1.1638666    
   1200500   299.8921       722.84066     -1702.1914      25156.05       29.30089       1.1636877    
   1200600   297.62696      706.42198     -367.1136       25067.548      29.266489      1.1677962    
   1200700   300.10099      668.71659     -318.74949      25195.705      29.316278      1.1618562    
   1200800   301.52137      742.64659      139.18667      25082.104      29.272152      1.1671184    
   1200900   306.18589      757.68664      2343.0871      25118.199      29.286187      1.1654413    
   1201000   305.78177      740.60796      709.69529      25000.47       29.240361      1.1709294    
   1201100   296.97084      749.01765     -1089.4842      25026.389      29.250462      1.1697167    
   1201200   298.8842       682.17293      950.10574      24971.778      29.229171      1.1722748    
   1201300   294.76654      734.73462     -666.43538      25134.602      29.29256       1.1646807    
   1201400   301.9255       702.28289      769.16153      24995.228      29.238317      1.171175     
   1201500   300.93525      734.40488      2872.7917      24877.93       29.192508      1.176697     
   1201600   302.72447      707.48327      124.11707      25090.883      29.275567      1.1667101    
   1201700   289.58359      729.97907     -437.40311      25126.444      29.289391      1.1650588    
   1201800   294.60115      669.0685      -1354.327       25046.525      29.258305      1.1687763    
   1201900   298.07927      713.46254      48.634902      24623.956      29.092828      1.1888336    
   1202000   305.03236      680.09204     -315.70075      24796.484      29.160617      1.180562     
   1202100   295.69869      735.10556     -754.31736      25126.625      29.289461      1.1650505    
   1202200   303.56121      659.38408     -1120.0578      25193.414      29.31539       1.1619619    
   1202300   298.43941      768.98918      804.15573      25141.513      29.295245      1.1643606    
   1202400   303.42767      815.45037     -1544.4341      25359.578      29.379699      1.1543483    
   1202500   301.67484      796.4683      -1021.5281      25052.64       29.260686      1.168491     
   1202600   302.583        731.26875      1079.0352      25146.584      29.297215      1.1641257    
   1202700   297.93449      749.72874     -63.760416      25273.959      29.346598      1.1582588    
   1202800   300.28035      722.34724     -1621.8556      25129.02       29.290392      1.1649394    
   1202900   304.28367      749.87411      765.58564      25104.233      29.280758      1.1660896    
   1203000   310.39044      788.01962      1374.2681      25120.155      29.286947      1.1653505    
   1203100   305.44769      782.3755       341.21047      25221.328      29.326213      1.1606759    
   1203200   298.71501      771.42107      779.9674       25042.231      29.256633      1.1689768    
   1203300   300.78917      730.97042      167.6869       25054.017      29.261222      1.1684269    
   1203400   296.97214      759.69771     -677.38464      25064.105      29.265148      1.1679566    
   1203500   303.85218      695.88428      1377.6731      25027.655      29.250955      1.1696576    
   1203600   294.68031      744.97122     -213.70954      25207.223      29.320745      1.1613253    
   1203700   295.90624      745.09511      1120.5062      25239.693      29.333329      1.1598313    
   1203800   298.06499      786.41773      612.7921       25097.77       29.278245      1.1663899    
   1203900   302.7444       790.64576     -847.25319      25216.038      29.324162      1.1609194    
   1204000   303.54868      748.24368      80.559932      25010.912      29.244431      1.1704406    
   1204100   293.62816      729.85827      776.71234      24939.281      29.216486      1.1738023    
   1204200   287.08709      797.14644      796.41147      25110.255      29.283099      1.16581      
   1204300   298.26746      768.19663      1764.7821      24990.267      29.236382      1.1714075    
   1204400   306.09047      738.67224     -1646.4228      25079.747      29.271235      1.1672281    
   1204500   303.76598      749.22575     -2172.27        24833.076      29.174954      1.1788224    
   1204600   297.98439      713.67983     -1320.3919      24974.724      29.23032       1.1721365    
   1204700   291.52327      724.70738     -1686.3505      24952.083      29.221484      1.1732001    
   1204800   303.37683      656.66304     -309.13333      24789.7        29.157957      1.1808851    
   1204900   301.82704      727.19204     -738.57715      24848.265      29.1809        1.1781018    
   1204999   301.96869      765.03328     -1662.3438      25108.276      29.28233       1.1659018    
Loop time of 4284.04 on 4 procs for 1000000 steps with 2808 atoms

Performance: 20.168 ns/day, 1.190 hours/ns, 233.424 timesteps/s
319.3% CPU use with 1 MPI tasks x 4 OpenMP threads

MPI task timing breakdown:
Section |  min time  |  avg time  |  max time  |%varavg| %total
---------------------------------------------------------------
Pair    | 2882.6     | 2882.6     | 2882.6     |   0.0 | 67.29
Bond    | 280.33     | 280.33     | 280.33     |   0.0 |  6.54
Neigh   | 551.72     | 551.72     | 551.72     |   0.0 | 12.88
Comm    | 85.948     | 85.948     | 85.948     |   0.0 |  2.01
Output  | 60.035     | 60.035     | 60.035     |   0.0 |  1.40
Modify  | 411.76     | 411.76     | 411.76     |   0.0 |  9.61
Other   |            | 11.6       |            |       |  0.27

Nlocal:           2808 ave        2808 max        2808 min
Histogram: 1 0 0 0 0 0 0 0 0 0
Nghost:          14111 ave       14111 max       14111 min
Histogram: 1 0 0 0 0 0 0 0 0 0
Neighs:    1.12002e+06 ave 1.12002e+06 max 1.12002e+06 min
Histogram: 1 0 0 0 0 0 0 0 0 0

Total # of neighbors = 1120017
Ave neighs/atom = 398.86645
Ave special neighs/atom = 11.65812
Neighbor list builds = 49780
Dangerous builds = 0
unfix			1
#final
write_data		no_link_minimize.data
System init for write_data ...
Generated 36 of 36 mixed pair_coeff terms from geometric mixing rule
Last active /omp style is angle_style harmonic/omp

#parameter
neighbor		2.0 bin
Total wall time: 1:21:01
