LAMMPS data file via write_data, version 23 Jun 2022, timestep = 1204999

2808 atoms
9 atom types
2804 bonds
8 bond types
5200 angles
15 angle types

30.550831888439866 59.83316211156106 xlo xhi
28.97383488843986 58.25616511156105 ylo yhi
30.392335888439867 59.67466611156106 zlo zhi

Masses

1 1.00794
2 1.00794
3 12.0107
4 12.0107
5 1.00794
6 1.00794
7 1.00794
8 1.00794
9 15.9994

Pair Coeffs # lj/cut/omp

1 0.038 2.44997
2 0.038 2.44997
3 0.039 3.87541
4 0.039 3.87541
5 0.038 2.44997
6 0.038 2.44997
7 0 0
8 0.038 2.44997
9 0.228 2.85978

Bond Coeffs # harmonic/omp

1 340.618 1.105
2 340.618 1.105
3 322.716 1.526
4 340.618 1.105
5 340.618 1.105
6 340.618 1.105
7 384 1.42
8 540.634 0.96

Angle Coeffs # harmonic/omp

1 39.5 106.4
2 44.4 110
3 39.5 106.4
4 44.4 110
5 39.5 106.4
6 46.6 110.5
7 44.4 110
8 44.4 110
9 70 109.5
10 46.6 110.5
11 44.4 110
12 58.5 106
13 39.5 106.4
14 57 109.5
15 57 109.5

Atoms # full

2488 4 4 0 34.475307596240114 32.99126498172453 34.24753651264531 0 0 0
2487 4 3 0 33.75135186982712 33.83914932636129 35.32452196364306 0 0 0
2486 4 8 0 32.6903647190093 33.634553828879106 35.383737354825165 0 0 0
2489 4 1 0 34.15309670585994 33.58006513911936 36.26901633821723 0 0 0
2494 4 3 0 34.3756767906711 31.550338799932337 34.56829218851938 0 0 0
2493 4 8 0 33.717007736471636 31.020851893402416 33.87895366177776 0 0 0
2495 4 4 0 35.63996086238102 30.745692170465237 34.61608105102666 0 0 0
2496 4 1 0 33.79354249626443 31.55562310217038 35.468902693714455 0 0 0
2491 4 9 0 33.81561134981239 33.19399896684633 33.016510294863 0 0 0
2498 4 9 0 36.578911515178596 31.161751354513186 33.58542251460759 0 0 0
2490 4 5 0 35.502113837777465 33.330118745717016 34.19513509633292 0 0 0
2492 4 7 0 34.25017136480654 33.967376767226284 32.6564856118483 0 0 0
2501 4 3 0 36.30243654158891 31.002436995318867 36.029653901786325 0 0 0
2482 4 1 0 35.77802893413223 35.43520740199691 36.57496578017711 0 0 0
2481 4 4 0 34.06778625044545 35.336842676707086 35.15738443943577 0 0 0
2499 4 7 0 37.327590650156715 30.541199610285002 33.68357890334464 0 0 0
2337 4 9 0 37.802747918247825 35.648709967064 31.124212529403383 0 0 0
2503 4 1 0 36.48847183506957 32.07881331003905 36.18566495742364 0 0 0
2483 4 5 0 34.82755110141207 35.47461742737071 34.371975933360744 0 0 0
2480 4 3 0 34.69365623151775 35.82307428118281 36.44131801930426 0 0 0
2479 4 8 0 34.15683814530451 35.34113735296667 37.28215535415207 0 0 0
2485 4 7 0 32.20460158584161 35.406833671948576 34.838195238602665 0 0 0
2500 4 8 0 35.5124195883571 30.66112740404458 36.72407523497692 0 0 0
2484 4 9 0 32.927510855263755 36.05642150590588 34.88028964867253 0 0 0
2339 4 8 0 37.7165389097384 33.770458626626976 32.36152937728349 0 0 0
324 1 8 0 32.01289700698392 31.900439582332744 37.159855741165984 0 0 0
330 1 7 0 31.379280907392662 30.331932743379763 35.88274354750366 0 0 0
2502 4 4 0 37.51625224771699 30.076195024888467 36.17454399978119 0 0 0
2497 4 5 0 35.36155187691792 29.72489773262425 34.57974383615726 0 0 0
329 1 9 0 31.95271698139005 29.626418565437856 36.121577609569904 0 0 0
2508 4 3 0 37.92369573884494 29.793287796262998 37.62280333405127 0 0 0
2510 4 1 0 37.0348259547334 29.35757341314113 37.995220675539024 0 0 0
326 1 4 0 32.45775456076816 29.749698032652034 37.40976516972967 0 0 0
103 1 1 0 31.106592956707637 35.198802273256945 36.47869104182454 0 0 0
114 1 8 0 30.864727082060508 33.28819183186636 33.248280395500565 0 0 0
117 1 1 0 58.781654300573464 33.71404000559867 32.16939557412781 -1 0 0
120 1 7 0 59.524397445733946 29.834077295606598 33.00045200482536 -1 0 0
119 1 9 0 59.80909593543362 30.730234229695128 33.16688931659405 -1 0 0
167 1 5 0 34.04668264934103 36.44549713025038 31.880166970065737 0 0 0
168 1 9 0 32.015768777118126 36.07665160229484 31.766931646135426 0 0 0
2334 4 4 0 38.66649022153519 35.69407458575316 32.28432186816787 0 0 0
2340 4 3 0 38.525244703390115 34.325554813418655 32.927030659882 0 0 0
2345 4 7 0 39.60811899031188 32.75183866040171 31.201219316789466 0 0 0
2343 4 5 0 39.50293345815293 32.54021649962252 33.37566113513307 0 0 0
2341 4 4 0 39.80241879830948 33.49552004228183 32.984673305453875 0 0 0
2347 4 3 0 40.86711646404162 34.01511021362471 33.88809700875059 0 0 0
2346 4 8 0 40.53921512195955 34.94182078816193 34.424904674642654 0 0 0
2349 4 1 0 41.61685781488606 34.44593355077455 33.240687798919375 0 0 0
2350 4 5 0 40.88163268281158 31.907960911001464 34.714546324028625 0 0 0
2348 4 4 0 41.42536902601813 32.93483041620581 34.84626280292054 0 0 0
2336 4 5 0 39.744656959420354 35.875144909871544 32.071455282654185 0 0 0
2344 4 9 0 40.33988491246453 33.17095202805112 31.68405896398204 0 0 0
2354 4 3 0 42.93923067966348 32.718301120823604 34.53719367417366 0 0 0
2356 4 1 0 43.43733623061307 33.689768706396556 34.39049693774962 0 0 0
2351 4 9 0 41.26150499681226 33.32797002039969 36.173910719384324 0 0 0
2352 4 7 0 40.84740282584023 32.62934620129952 36.69085618636155 0 0 0
2342 4 1 0 38.14007910944147 34.48055840093907 33.9553466960837 0 0 0
2357 4 5 0 42.06458544754983 31.6454445341878 32.87749301156367 0 0 0
2353 4 8 0 43.58190669032199 32.37253168282236 35.33600419736105 0 0 0
2355 4 4 0 43.0217832441689 31.706632289661865 33.42248538836347 0 0 0
1090 2 3 0 44.845992414557315 34.254212721532696 37.614548464661524 0 0 0
2359 4 7 0 43.86645750310635 30.00748638426409 33.33421533320428 0 0 0
2358 4 9 0 43.29698884737924 30.47596241490992 33.985420677784965 0 0 0
2360 4 8 0 44.030707182553485 32.90812022102137 31.927167906812883 0 0 0
1084 2 4 0 44.99101703020705 35.80400588450518 37.37639197484402 0 0 0
2361 4 3 0 44.23045463082623 31.99370662071278 32.5128457155504 0 0 0
2364 4 5 0 45.624504436379276 32.34160661126441 34.287222844152716 0 0 0
1085 2 1 0 43.13800503031352 36.012622426364636 36.05073845004132 0 0 0
1075 2 8 0 40.98818747913823 36.63440287383174 37.03928401701439 0 0 0
1089 2 8 0 45.08595975384294 33.79571882679544 36.682228128239636 0 0 0
1373 2 5 0 45.14219901604939 36.25894670817144 31.783489936376583 0 0 0
2363 4 1 0 44.21742219559539 31.311351542594778 31.713353402409687 0 0 0
1088 2 7 0 46.94886644634657 35.82374336385982 36.82444921824707 0 0 0
2504 4 5 0 38.410824918724444 30.501194617827764 35.661041264768954 0 0 0
1466 3 5 0 41.179983926614675 29.497270318940867 32.77685793622154 0 0 0
1479 3 1 0 43.021238580483214 29.05973643691804 30.860422380092103 0 0 0
1451 3 1 0 41.73348180242222 29.030773797096177 37.40731812534199 0 0 0
1475 3 7 0 41.173597931785764 31.047271127058035 59.11138016664683 0 0 -1
2365 4 9 0 46.35660454517411 33.192545635019165 32.54010985189804 0 0 0
2362 4 4 0 45.63002364553658 32.134720876152386 33.15143792399666 0 0 0
2368 4 3 0 46.409870358971894 30.81007524331528 32.97845480438884 0 0 0
2371 4 5 0 48.14592773998895 31.860571039368594 33.89121349971393 0 0 0
2370 4 1 0 45.7143479898226 30.131878396932095 33.4039305491562 0 0 0
2369 4 4 0 47.63947047168614 30.83359328506844 33.78409887738227 0 0 0
2372 4 9 0 47.29692311797482 30.3856246697815 35.14195765673912 0 0 0
1101 2 9 0 48.349325159010846 33.05644562594627 37.63603247678749 0 0 0
2373 4 7 0 46.39804879802148 30.62735528590933 35.33570723489591 0 0 0
1102 2 7 0 49.0677392090608 32.530812964051826 37.20836300145894 0 0 0
2406 4 5 0 52.161243687411094 32.58789925626021 34.94919730438344 0 0 0
2414 4 9 0 50.25296204440459 34.39862895335314 35.496513021391635 0 0 0
2411 4 4 0 51.45824754948629 35.12461262671239 35.81936264711003 0 0 0
2366 4 7 0 47.27510165660573 32.97293825095133 32.77070667078796 0 0 0
2415 4 7 0 49.5696926852444 35.03671715329727 35.34530506386932 0 0 0
2399 4 5 0 52.84675645416266 30.59296381338254 35.29665307310858 0 0 0
2385 4 5 0 52.401652003833675 31.017438930672743 32.77115180537837 0 0 0
2377 4 1 0 48.592681644198706 58.1777501301114 33.96001351537098 0 -1 0
2375 4 3 0 48.66603393101164 29.802185178482425 33.278648740328634 0 0 0
2413 4 5 0 52.06021608024848 35.494983649661314 34.94396012154093 0 0 0
2367 4 8 0 46.63113604418287 30.483826553202004 31.9126675235651 0 0 0
2378 4 5 0 50.19841168891363 30.928646680914902 34.33858618362633 0 0 0
2410 4 3 0 52.34717680670014 34.1016031140433 36.57211440508932 0 0 0
2412 4 1 0 51.76927570757012 33.52319006795321 37.347366096632754 0 0 0
2401 4 7 0 53.694686820399596 29.01648539108659 36.941980415237204 0 0 0
2383 4 4 0 52.30347574903345 29.912192930035083 32.5425649107135 0 0 0
2376 4 4 0 50.05745173602639 30.458693471488655 33.37241606970064 0 0 0
2374 4 8 0 48.43382391644876 29.4513044226333 32.33998237438069 0 0 0
2386 4 9 0 52.27719493784333 29.71500846747951 31.209072780839605 0 0 0
2379 4 9 0 50.16581547167486 31.4598077636841 32.34278062497148 0 0 0
2380 4 7 0 51.001698980105694 31.927069371058522 32.47234175280303 0 0 0
2381 4 8 0 50.74032110845883 57.76475023702916 32.63749368663798 0 -1 0
2382 4 3 0 51.095923472407144 29.354745465521795 33.17203187587743 0 0 0
1096 2 8 0 45.8635798606838 31.99165218875031 37.71732405731855 0 0 0
1097 2 3 0 46.23988723489488 32.364991462655155 38.67800501033155 0 0 0
1108 2 9 0 50.17947037209848 29.350120311893328 38.134153313825394 0 0 0
1109 2 7 0 49.734343589090685 57.99300460376516 38.69141679005339 0 -1 0
1103 2 8 0 47.956535504782394 30.480676438225338 37.509076195984925 0 0 0
2404 4 4 0 52.97349077129887 33.11808422066075 35.545859608308646 0 0 0
2408 4 7 0 53.43787423827582 34.66248539643531 34.44702700960953 0 0 0
2400 4 9 0 53.363943733712986 29.894584094091144 37.15917735413604 0 0 0
2407 4 9 0 53.75653370161176 33.75626234224612 34.49986518360484 0 0 0
124 1 1 0 31.237867259959767 32.88883993226863 31.096357550588106 0 0 0
2397 4 4 0 53.69462367770834 30.627528675990234 35.95525221014323 0 0 0
2392 4 5 0 54.31529296891442 31.177005424090446 33.12614871483528 0 0 0
1523 3 9 0 52.30163096937851 33.53028131877395 31.055515277876033 0 0 0
113 1 7 0 56.65463874208076 33.8606895913006 34.50376127769419 -1 0 0
112 1 9 0 56.98020319576803 33.575030183798155 33.657854678195896 -1 0 0
110 1 1 0 59.812922345128534 33.357653668887465 35.18299809267764 -1 0 0
118 1 5 0 58.21741443776359 31.135472683894573 31.738712411795845 -1 0 0
109 1 4 0 58.143333357867114 32.813765645440306 34.08768450174372 -1 0 0
111 1 5 0 57.93182005012251 31.701704758728532 34.210191532342996 -1 0 0
115 1 3 0 59.119014531098415 32.91444948737961 32.89350164284343 -1 0 0
2403 4 3 0 53.87324353915704 32.17320601527158 36.35262288418684 0 0 0
101 1 3 0 59.29778492385357 35.328356777237225 36.692504220619576 -1 0 0
108 1 3 0 58.732566515642546 33.36972447864076 35.390163408873704 -1 0 0
102 1 4 0 58.42737967280392 34.896453032559975 35.545438045977676 -1 0 0
107 1 8 0 58.56771734857527 32.79975522921979 36.31117353686209 -1 0 0
2402 4 8 0 54.91695019353955 32.520942169625414 36.136388600123134 0 0 0
2396 4 3 0 54.87952615324062 30.137155469028528 35.05554483714038 0 0 0
2395 4 8 0 55.6998230587768 30.85660822547282 35.28390476326132 0 0 0
2390 4 4 0 54.58633450346416 30.227981643392706 33.56286133298658 0 0 0
116 1 4 0 59.16488705419765 31.54468525640641 32.16888242508755 -1 0 0
1522 3 5 0 54.17616615475613 32.71665929592021 31.211750047263315 0 0 0
2405 4 1 0 53.74180867733632 32.35704535008546 37.441153079021944 0 0 0
105 1 9 0 57.05091254713667 34.86796256979374 35.98746600250126 -1 0 0
2393 4 9 0 55.824225153233684 29.847414849752845 32.97554326425567 0 0 0
106 1 7 0 56.54522538560525 34.55922600537092 35.23187513579441 -1 0 0
2409 4 8 0 53.17303386197518 34.4971513998467 37.16985717529901 0 0 0
1528 3 1 0 54.951677349760494 34.73786035967781 32.097517262609 0 0 0
104 1 5 0 58.59467918490873 35.483120699182415 34.580212254761896 -1 0 0
1526 3 3 0 54.3280303961201 34.80939442503151 31.169311366219144 0 0 0
1529 3 5 0 52.58999224974664 35.996685792327824 31.744082526704286 0 0 0
1527 3 4 0 53.43407501467582 36.13017004141508 31.081462771196808 0 0 0
95 1 4 0 59.245143859392385 36.707324153719426 37.29838625569732 -1 0 0
97 1 5 0 58.21844679985628 36.91703071911923 37.4890569376034 -1 0 0
2398 4 1 0 55.14363303501064 29.09186802717405 35.408992101844994 0 0 0
2389 4 3 0 53.53865730410624 29.217671156337563 33.061596385563156 0 0 0
100 1 8 0 59.12160956456604 34.63382709773271 37.48434948313639 -1 0 0
1524 3 7 0 52.02704929195407 32.68954609076075 31.41744137395136 0 0 0
1525 3 8 0 55.083000981201124 34.93954517014047 30.418083805692216 0 0 0
127 1 7 0 57.76491176263042 32.09099116081129 59.38991682090143 -1 0 -1
99 1 7 0 30.952573607333264 38.25936541472142 37.03069891993309 0 0 0
1542 3 1 0 54.54892258211882 36.44517079377408 34.36623454362863 0 0 0
2387 4 7 0 51.37126342100353 29.82192242808782 30.912599042062197 0 0 0
2475 4 1 0 36.48536685746285 36.885630687973084 37.770620772428174 0 0 0
2338 4 7 0 38.27269145157871 36.20491287893516 30.48546036333129 0 0 0
176 1 7 0 31.480643051725764 37.838268411587656 32.30574876428984 0 0 0
175 1 9 0 31.778476952672275 38.597351001772054 32.82216942180763 0 0 0
2474 4 4 0 34.79765762745465 37.32579376575758 36.37984201483298 0 0 0
2476 4 5 0 35.150234983175864 37.65686296357219 35.38279227760779 0 0 0
185 1 3 0 33.37741177350109 42.42764008675404 33.54134110667111 0 0 0
188 1 5 0 35.0793407258161 42.565200715988624 34.665668272645995 0 0 0
186 1 4 0 34.413572281739974 43.27203887441609 34.20823182848936 0 0 0
184 1 8 0 32.455622159616794 42.34357489689811 34.24549813654692 0 0 0
192 1 3 0 35.04430425616535 44.215381551966615 33.16902324334501 0 0 0
179 1 4 0 33.86390235695424 41.021765458101186 33.29933563127701 0 0 0
181 1 5 0 35.01438078244492 40.96262299917049 33.30346181312397 0 0 0
2478 4 7 0 33.79488645393284 38.86918397400982 36.45246975022004 0 0 0
2477 4 9 0 33.6406679483325 37.937410287626236 36.65371100657624 0 0 0
183 1 7 0 34.1871442997566 40.311872799000604 35.160275767759984 0 0 0
182 1 9 0 33.45976317751109 40.347675905468684 34.50395559858401 0 0 0
766 2 7 0 30.752411472341038 41.26461058248774 35.35223887248242 1 0 0
765 2 9 0 59.575949096706005 40.65952609437451 34.74526353061915 0 0 0
178 1 3 0 33.16783754136647 40.36836580312474 32.06994877623185 0 0 0
177 1 8 0 32.13239416457665 40.78310843589348 31.924250163215046 0 0 0
2470 4 9 0 35.45244385115312 39.97369769806001 36.69523331486882 0 0 0
2471 4 7 0 35.33739189441721 39.77565878380457 35.75697027605381 0 0 0
2467 4 4 0 36.466927794839236 39.05034151418651 37.102568465301324 0 0 0
2473 4 3 0 35.74236325840593 37.662002376878114 37.484263023718604 0 0 0
2469 4 5 0 37.13210414692745 38.918330592382674 36.24966156850336 0 0 0
172 1 4 0 33.03558648532842 38.84900362431473 32.2564714685129 0 0 0
187 1 1 0 33.021666639239406 43.006692617180164 32.607131212612515 0 0 0
174 1 5 0 33.840361261423446 38.512634835877655 32.99008027857825 0 0 0
757 2 5 0 59.16435280970089 40.75206973064523 31.813223517401315 0 0 0
70 1 9 0 32.63958745951736 44.41765310405043 38.28015198969564 0 0 0
764 2 5 0 59.133305869927476 42.23951187459514 33.57916333744931 0 0 0
772 2 9 0 30.702540711677436 42.921336116216395 36.16091310592932 1 0 0
180 1 1 0 33.819736743882 40.67631617149553 31.316063122886693 0 0 0
194 1 1 0 35.38290209326064 43.70407418024809 32.249232106628405 0 0 0
197 1 7 0 35.738384288471444 44.63631707571957 35.45312101182627 0 0 0
191 1 8 0 34.24951089321515 44.88102228218972 32.9843045307294 0 0 0
773 2 7 0 30.952915882042397 42.51532116874243 35.334900641539924 1 0 0
2472 4 8 0 35.073927631794184 37.756880126734345 38.419306727652604 0 0 0
752 2 7 0 59.36858174117075 40.11641447015615 58.25394065218899 0 0 -1
2331 4 7 0 36.734798322571635 38.74249500566843 31.197182257678975 0 0 0
2464 4 7 0 37.20600032136464 41.34896277302589 37.58788396270237 0 0 0
2330 4 9 0 36.862304556560325 38.59165892557446 32.13207337091866 0 0 0
2463 4 9 0 38.105034566435144 41.20659631708162 37.25277925264939 0 0 0
2460 4 4 0 38.59049432955577 40.12558952076936 37.99667271528445 0 0 0
90 1 5 0 31.073694326783563 39.0620560236888 38.26145547434397 0 0 0
1082 2 8 0 44.03359087325588 37.47504232100001 36.15882889795846 0 0 0
1083 2 3 0 43.75530826495001 36.55691998448246 36.73328173931073 0 0 0
1087 2 9 0 46.07798185589022 36.01724042346263 36.40986436605026 0 0 0
1374 2 9 0 43.3802737384499 36.49110368573534 32.83787178613057 0 0 0
1080 2 9 0 42.48158903118828 38.40034189308812 37.64507477989452 0 0 0
1081 2 7 0 42.177482084201664 38.80953984927662 38.49539539412863 0 0 0
1077 2 4 0 42.8184856818112 37.056748138346805 37.839276433278755 0 0 0
1375 2 7 0 44.047383038535415 35.984632248902 33.32538176658837 0 0 0
2335 4 1 0 38.63294695239557 36.83609688633626 34.12322769737219 0 0 0
1086 2 5 0 45.344673452856775 36.204020490014194 38.355791037049656 0 0 0
2332 4 8 0 37.09784011046443 36.50214941645087 33.46796344565101 0 0 0
2333 4 3 0 38.14727448773816 36.80082909016217 33.140594690675364 0 0 0
2329 4 5 0 38.76530355537322 38.118770977208484 31.552944874753308 0 0 0
2328 4 1 0 37.87825020259082 39.29269988532472 34.37828935889702 0 0 0
2321 4 1 0 39.94997589429826 41.12293025100938 34.505999784992454 0 0 0
2326 4 3 0 38.61730655533313 39.184016669450976 33.50346403089539 0 0 0
2319 4 3 0 40.689996715208196 40.50819443631139 33.90137807683039 0 0 0
2318 4 8 0 40.60145545550971 40.91817667789058 32.86228029556893 0 0 0
2320 4 4 0 40.11784095184819 39.0867267388926 33.94033290470972 0 0 0
2313 4 4 0 42.17067324716755 40.73228838553115 34.27347270047142 0 0 0
2322 4 5 0 40.157596581525645 38.675903769825744 34.97904184380006 0 0 0
2311 4 8 0 42.06382250690274 42.55067419291473 33.107782619886095 0 0 0
2312 4 3 0 42.5510427148033 42.17761151935497 34.040526233461456 0 0 0
2316 4 9 0 42.295421135852585 40.488738459958014 35.675171345809474 0 0 0
2327 4 4 0 38.146614284866075 38.17256487156159 32.500971463024 0 0 0
2315 4 5 0 42.77758331154048 40.094934396506375 33.67848929481734 0 0 0
2314 4 1 0 42.501364897119274 42.82443169440099 34.89791941636773 0 0 0
2306 4 4 0 43.968598845238006 42.22607889759147 33.65593107474182 0 0 0
2323 4 9 0 40.79987815833346 38.15164236726546 33.07302181019943 0 0 0
201 1 1 0 37.62986702412186 43.07019854246825 34.116358675380376 0 0 0
2462 4 5 0 39.24412733253885 39.4993495625079 37.38469462397825 0 0 0
2324 4 7 0 41.651844578199224 37.936030803800456 33.43300392807223 0 0 0
2325 4 8 0 38.461291453796406 40.05565115443321 32.8867784160204 0 0 0
2317 4 7 0 41.52281429215624 40.03337301111959 36.03371555270685 0 0 0
2455 4 5 0 40.83446047245174 41.37408436506456 37.829129836232056 0 0 0
2309 4 9 0 43.96513198304712 41.983618994873474 32.286637390134246 0 0 0
1371 2 4 0 44.24611431635942 36.95114561130964 31.76350310075815 0 0 0
1369 2 8 0 44.039617425367894 39.046606287697436 31.570134826525003 0 0 0
2308 4 5 0 44.58336353694119 41.41424041535778 34.23608302471203 0 0 0
1372 2 1 0 44.66087430694391 38.617247699173184 33.10652770566366 0 0 0
1370 2 3 0 44.75218532111161 38.36260625825038 32.06538840486943 0 0 0
2441 4 5 0 44.22193830669405 40.47410864562638 38.14462475229896 0 0 0
2442 4 9 0 44.20305984977678 42.26169046713616 37.05921848589439 0 0 0
2417 4 3 0 50.953734974952305 36.276043815811725 36.74559703209699 0 0 0
2310 4 7 0 44.55454742387791 42.7029269404866 32.05056138515404 0 0 0
1366 2 5 0 46.42070935878414 37.924493185669256 30.926379333668848 0 0 0
1364 2 4 0 46.08567459575143 38.68485741675804 31.65544424798066 0 0 0
2429 4 7 0 47.43780024041195 37.430876570178 35.79241950533166 0 0 0
1365 2 1 0 46.98221583452677 37.672406898907795 33.4666188651514 0 0 0
1363 2 3 0 47.011688340758525 38.66075667813271 32.84437956297375 0 0 0
1361 2 7 0 48.968261089485296 37.10944650526143 32.100694458298086 0 0 0
2425 4 4 0 48.20241742227961 38.92492856176583 36.56593964149249 0 0 0
1360 2 9 0 49.213865292176834 37.7791494031958 32.714520661261425 0 0 0
1349 2 3 0 50.77294082268297 41.95855028278676 32.63362883001986 0 0 0
1351 2 1 0 50.05384537373196 42.41869459099273 33.268528732970665 0 0 0
1356 2 3 0 49.12911292828828 40.246241672080565 32.69548832988874 0 0 0
1350 2 4 0 50.590305554332446 40.45211931856107 32.54944861677538 0 0 0
1352 2 5 0 51.111814671473326 39.92094356045877 33.38112628398025 0 0 0
1358 2 1 0 49.03486676851311 40.35487159152784 33.801119414100164 0 0 0
1355 2 8 0 48.497282482835004 40.97067761859263 32.29939061728556 0 0 0
1357 2 4 0 48.42944528563352 38.89426867497258 32.25788530461533 0 0 0
1343 2 4 0 52.10281595289095 42.276740108769374 33.222136622128296 0 0 0
1348 2 8 0 50.773575269035874 42.33998795184074 31.57725042646539 0 0 0
1359 2 5 0 48.4433112477064 38.944777779625156 31.072813114056718 0 0 0
2427 4 5 0 48.79345256221833 39.43998992004366 35.71294394354425 0 0 0
2303 4 7 0 47.31441853493984 42.71350672181097 32.4865928926221 0 0 0
2302 4 9 0 46.671110574317694 42.45186001340209 33.158049438377084 0 0 0
1353 2 9 0 50.97094890773135 39.93009766204288 31.290228598305895 0 0 0
1346 2 9 0 52.011491159023834 43.092385395228796 34.31035301686469 0 0 0
2420 4 5 0 49.17595535154901 36.663090732495526 35.377369894961014 0 0 0
2434 4 5 0 45.969644933477944 40.293475534009104 36.771410375653076 0 0 0
2418 4 4 0 49.97285885149513 37.209739551088916 35.9989258714889 0 0 0
2428 4 9 0 47.171251873186264 38.3197824313651 36.016790342299295 0 0 0
2421 4 9 0 50.85654794791223 38.03690865631778 35.23519909280595 0 0 0
2416 4 8 0 51.81236876119992 36.72658341990167 37.1817341267357 0 0 0
1368 2 7 0 45.21738198717236 40.105371205330925 30.752205785833798 0 0 0
1354 2 7 0 50.23359606436456 39.33832165042172 31.0523228590213 0 0 0
1362 2 8 0 46.760627068466306 39.56260012426453 33.486330097473896 0 0 0
1345 2 5 0 52.67825112200907 41.36207657797984 33.48287179218262 0 0 0
2063 3 7 0 46.398509531300476 42.90026337604057 58.921684549288315 0 0 0
1347 2 7 0 51.097415610032066 42.988721591800946 34.54794498786228 0 0 0
1344 2 1 0 52.203580653566235 43.75677652977911 31.770014046206445 0 0 0
2424 4 3 0 49.26956527342227 37.98851555478168 37.123640684046435 0 0 0
2436 4 7 0 47.55889146143151 41.2921675051661 35.61465789509758 0 0 0
2422 4 7 0 51.6448788960429 37.5098683138158 35.1208241685578 0 0 0
2435 4 9 0 47.319396946255054 41.83145483539079 36.37611112453025 0 0 0
2432 4 4 0 46.71359727446001 40.891462451434876 37.287398565178805 0 0 0
1367 2 9 0 46.115554046386606 39.92073830760181 30.978421066959324 0 0 0
762 2 4 0 58.61169198470536 41.49605182523262 34.16593582889247 0 0 0
769 2 4 0 58.66061384388651 42.59184643748302 36.458484729234186 0 0 0
1535 3 1 0 55.30774918648919 37.16205540434854 31.152141743965025 0 0 0
98 1 9 0 59.792135964918515 37.64734176796173 36.43586650283213 -1 0 0
759 2 7 0 56.48378165093354 40.85733554932162 31.11319721734921 0 0 0
1536 3 5 0 53.20484590243451 37.818772024888716 33.2370235487422 0 0 0
1532 3 8 0 53.90230899596288 38.1706083374515 30.823917386018923 0 0 0
1342 2 3 0 52.86163015203036 42.93685390037083 32.151333907005146 0 0 0
1557 3 5 0 52.95680794023399 42.421136911009924 36.495547091594105 0 0 0
760 2 8 0 57.734106395853715 39.59348693934877 33.74230024555638 0 0 0
753 2 8 0 58.851002310230086 38.549585932567894 31.910335457721718 0 0 0
761 2 3 0 57.750811618099064 40.60467410165239 33.254141014170145 0 0 0
767 2 8 0 57.04123755182841 41.619147081765604 35.62988261427596 0 0 0
763 2 1 0 56.74084275779694 41.04720040143937 33.22803063034639 0 0 0
755 2 4 0 58.10919503295153 40.436524662787654 31.750215413299134 0 0 0
754 2 3 0 58.094483834378714 39.02579441134378 31.35326051289423 0 0 0
770 2 1 0 57.41099356810079 43.234408965682405 34.763656103958326 0 0 0
768 2 3 0 57.81177545848428 42.26942713641295 35.1991944631908 0 0 0
1539 3 8 0 55.84716399632895 36.77774236179563 33.39226646068122 0 0 0
1533 3 3 0 54.24758473752816 37.34001325567502 31.454575546836036 0 0 0
1534 3 4 0 54.164274288525775 37.905844802758246 32.838300385418954 0 0 0
1545 3 7 0 56.88793629741413 36.910347131519366 35.22926922838699 0 0 0
1544 3 9 0 56.87956012900244 37.86215957351805 35.239149922063646 0 0 0
1540 3 3 0 55.04672634381875 37.26980938674249 33.94562028899297 0 0 0
756 2 1 0 57.18094916467159 38.44669290023931 31.603320890125147 0 0 0
1339 2 9 0 54.76734504612334 42.88244242318287 33.58853594652919 0 0 0
1537 3 9 0 54.337454795425664 39.356159495433566 32.84049032156041 0 0 0
1538 3 7 0 55.048641796536444 39.35953260767328 32.194827447875184 0 0 0
1541 3 4 0 55.55805032178027 38.279325575657936 35.063016588768726 0 0 0
1543 3 5 0 55.65700630865085 39.2994587333991 34.72246501580961 0 0 0
758 2 9 0 57.284441093537964 41.35883463039027 31.070260896587637 0 0 0
1547 3 3 0 54.73362110153815 38.19987896752094 36.29462950627502 0 0 0
1549 3 1 0 53.70056389386028 37.83726197941665 36.01597123222867 0 0 0
1546 3 8 0 55.1598271675615 37.46871799521164 36.968631846171235 0 0 0
748 2 4 0 58.39953176499735 38.8471125879842 59.18705284775601 0 0 -1
1550 3 5 0 55.77453547492618 40.06259543067898 36.729685426131915 0 0 0
1340 2 7 0 54.48100455331192 41.999844923169604 33.37222011405676 0 0 0
1548 3 4 0 54.77890837164472 39.56892887293303 37.011730911289284 0 0 0
1336 2 4 0 54.09533514586383 43.67590191116266 32.66251495333446 0 0 0
1341 2 8 0 53.19032245750506 42.22264209515689 31.343340403432503 0 0 0
1334 2 8 0 55.623221834575716 42.988064273610306 31.156996995904805 0 0 0
1559 3 7 0 54.992779360995826 42.886512038610775 37.07260054946905 0 0 0
749 2 1 0 57.212955939114316 36.95682993832979 59.12259785383921 0 0 -1
1335 2 3 0 55.000635093002884 43.852247486243506 31.469669383019028 0 0 0
1558 3 9 0 54.54781920927521 42.31509437173476 37.708437897048135 0 0 0
746 2 8 0 58.873299963174425 36.63251208928528 59.39964810967844 0 0 -1
1337 2 1 0 54.313461477315755 44.00437062517905 30.60224362295744 0 0 0
1554 3 3 0 53.51128663758793 40.3190585202899 36.61913631202254 0 0 0
1555 3 4 0 53.333348246048374 41.70988243167133 37.237983989901196 0 0 0
1553 3 8 0 52.716967332052064 39.70457263639205 36.99042133199406 0 0 0
1556 3 1 0 53.45775581388519 40.46737198799168 35.54438706659066 0 0 0
750 2 5 0 57.59868273621208 39.38629422112567 58.75387540088808 0 0 -1
747 2 3 0 58.25819853100836 37.29560983992947 58.82239419817536 0 0 -1
189 1 9 0 33.6356103582813 43.97358404448613 35.16573003126004 0 0 0
71 1 7 0 31.998362571260742 44.51703857601055 38.98533367517606 0 0 0
190 1 7 0 33.75710506792329 43.72113634545565 36.07488149297385 0 0 0
196 1 9 0 36.09903337802262 45.36855194216818 34.97770788316195 0 0 0
193 1 4 0 36.31250117739477 44.88853838529156 33.624092196555786 0 0 0
1294 2 4 0 36.68977825845009 49.58039448973733 34.62217812396082 1 0 0
1299 2 8 0 35.96649942231747 47.89826751983722 33.3781442302563 1 0 0
1301 2 4 0 34.209652713444015 49.187791858650215 34.0203304142896 1 0 0
1307 2 3 0 33.75026160094471 47.91382589555693 34.66033944243928 1 0 0
1300 2 3 0 35.727782477549226 49.00640020667668 33.588597742079045 1 0 0
1303 2 5 0 34.12001536486529 50.05587523931541 34.70656282862021 1 0 0
1302 2 1 0 35.948616172610215 49.477401717189196 32.62204552074967 1 0 0
1304 2 9 0 33.483658017827274 49.39689043436213 32.793837557824325 1 0 0
1296 2 5 0 36.079137557543696 49.994462172629206 35.53732739096218 1 0 0
1305 2 7 0 34.02287124133517 49.953424775567406 32.20845703375997 1 0 0
1309 2 1 0 33.82784039090389 47.04684672676858 33.96655934270994 1 0 0
1306 2 8 0 34.499316779860294 47.63802820010092 35.52979008596232 1 0 0
1308 2 4 0 32.41076270259086 47.95117398008388 35.28954627975825 1 0 0
1310 2 5 0 31.905196351028735 48.886962647200505 35.074960036849774 1 0 0
1316 2 1 0 32.20785203705768 45.89533024312534 34.66982306664544 1 0 0
1311 2 9 0 32.68165263348869 48.06781659346383 36.68754111279659 1 0 0
1314 2 3 0 31.574804603904806 46.722212480184695 34.94285486934109 1 0 0
1313 2 8 0 31.01661609926369 46.37399196308665 35.88374349631869 1 0 0
1312 2 7 0 32.38825539793461 48.951940443165896 36.90575657329572 1 0 0
534 1 8 0 36.178180586130985 47.4124479184955 30.487075583249027 0 0 1
1318 2 9 0 31.26122310549681 47.31787120215395 32.63274920530659 1 0 0
195 1 5 0 36.55299409398555 45.78882904084077 32.997098855590465 0 0 0
1297 2 9 0 37.611571169563994 48.55033881974417 35.04801325148122 1 0 0
2769 4 1 0 33.51755791323389 51.171296105525485 37.24091719043332 1 0 0
1295 2 1 0 36.70575589903706 51.346818171294515 33.33262836635374 1 0 0
2198 4 7 0 59.50600612362657 50.04583635472833 32.48674128147595 0 0 0
520 1 8 0 32.130729250774884 45.01970908939637 31.188475713694388 0 0 1
2307 4 1 0 44.54168486372233 43.78353266426176 34.96366848158156 0 0 0
199 1 3 0 37.68891723994418 44.04937249750375 33.55156012215663 0 0 0
198 1 8 0 37.924430998384075 43.777443412015046 32.56401157071997 0 0 0
208 1 1 0 38.33472396037954 44.68775387994086 36.2306589916478 0 0 0
205 1 8 0 39.78063557049683 43.976017865186115 35.575680924007415 0 0 0
2304 4 8 0 43.86087706195367 44.24588208082979 33.39485701753726 0 0 0
2305 4 3 0 44.587467831939236 43.59269750494717 33.903448365870176 0 0 0
1293 2 3 0 37.447603254955865 50.657149336305494 33.867864339072035 1 0 0
206 1 3 0 39.205016048541275 44.84207387080671 35.565452854731774 0 0 0
1298 2 7 0 37.6184537739036 48.6282576049954 35.9978405442484 1 0 0
204 1 7 0 40.18342494623219 45.47223789239699 32.77942563906536 0 0 0
541 1 8 0 38.662422793198274 47.48081783865194 31.886829649762046 0 0 1
202 1 5 0 38.58086399398492 46.05146500272359 33.93394420204962 0 0 0
203 1 9 0 39.97698775660398 44.68070618962527 33.27450347024517 0 0 0
200 1 4 0 38.81352700898073 44.99002195809604 34.06532931382996 0 0 0
212 1 8 0 41.673225201860085 45.995619851547985 34.76839015230266 0 0 0
207 1 4 0 40.05220182569875 45.99163843112472 36.18401734045433 0 0 0
213 1 3 0 41.50948199450829 45.863764017802225 35.79494122233116 0 0 0
209 1 5 0 39.57234434071501 46.929563563383155 35.92049430015173 0 0 0
217 1 9 0 41.98084257857889 48.130387207746494 35.90643253816579 0 0 0
214 1 4 0 42.26223716043001 46.878774136438835 36.565806073949055 0 0 0
556 1 3 0 43.29015321627186 49.604648948535896 32.30558153358144 0 0 1
553 1 9 0 42.23749463823747 47.61774060887849 32.98236397727828 0 0 1
555 1 8 0 43.174537950189624 49.82246785629521 33.41117462892011 0 0 1