LAMMPS data file via write_data, version 15 Sep 2022, timestep = 10000000

6084 atoms
14 atom types
6080 bonds
11 bond types
11116 angles
19 angle types
17688 dihedrals
20 dihedral types

62.659039540309536 100.42796845967881 xlo xhi
73.96703354032176 111.73596245967714 ylo yhi
70.26603754032179 108.03496645967716 zlo zhi

Masses

1 1.00794
2 1.00794
3 12.0107
4 12.0107
5 1.00794
6 1.008
7 1.00794
8 1.00794
9 1.00794
10 1.00794
11 15.999
12 15.9994
13 15.9994
14 28.085501

Pair Coeffs # lj/cut/omp

1 0.038 2.44997
2 0.038 2.44997
3 0.039 3.87541
4 0.039 3.87541
5 0.038 2.44997
6 0 1
7 0.038 2.44997
8 0.038 2.44997
9 0 0
10 0.038 2.44997
11 0.1521 3.1507
12 0.228 2.85978
13 0.228 2.85978
14 0.04 4.05343

Bond Coeffs # harmonic/omp

1 340.618 1.105
2 340.618 1.105
3 322.716 1.526
4 340.618 1.105
5 340.618 1.105
6 340.618 1.105
7 384 1.42
8 540.634 0.96
9 450 0.9572
10 540.634 0.96
11 392.8 1.665

Angle Coeffs # harmonic/omp

1 39.5 106.4
2 44.4 110
3 39.5 106.4
4 44.4 110
5 39.5 106.4
6 46.6 110.5
7 44.4 110
8 44.4 110
9 70 109.5
10 46.6 110.5
11 44.4 110
12 58.5 106
13 33.3 113.4
14 55 104.52
15 39.5 106.4
16 57 109.5
17 57 109.5
18 42.3 113.1
19 31.1 149.8

Dihedral Coeffs # harmonic/omp

1 0.158 1 3
2 0.158 1 3
3 0.158 1 3
4 0.158 1 3
5 0.158 1 3
6 0.158 1 3
7 0.158 1 3
8 0.13 1 3
9 0.158 1 3
10 0.158 1 3
11 0.158 1 3
12 0.158 1 3
13 1 1 3
14 0.13 1 3
15 0.13 1 3
16 0.158 1 3
17 0.158 1 3
18 0.158 1 3
19 0.158 1 3
20 0.3 1 3

Atoms # full

2746 4 3 -0.0565357 65.35635315672069 75.15156770566972 74.61258696084204 0 0 1
2745 4 10 0.133872 65.0163204813566 76.16333070802413 74.78362207244328 0 0 1
2739 4 3 -0.0546295 67.75304706457901 75.85368598774834 74.66964619386964 0 0 1
2738 4 10 0.132983 67.91673412074044 75.72476878106767 73.54651941271028 0 0 1
2747 4 4 -0.0862696 65.20731799218822 74.74578502730935 73.18520650229786 0 0 1
2749 4 7 0.150187 66.01250952981826 75.1510391015623 72.5391224915622 0 0 1
2741 4 1 0.132427 67.4233824956105 76.91648946942954 74.84869512390515 0 0 1
2740 4 4 -0.0772326 66.701134295921 74.79850663756449 75.23409152306989 0 0 1
2764 4 12 -0.396519 65.505202578605 77.50986293055495 71.51213660077 0 0 1
2753 4 3 -0.0505132 63.82953753087806 75.40867977428505 72.77472493740076 0 0 1
2765 4 9 0.153543 66.24874827159636 76.92378648834658 71.56961266080882 0 0 1
2728 4 7 0.152552 69.03577048487593 78.53380933266422 74.23432384424382 0 0 1
2754 4 4 -0.0765786 63.44877698366049 75.29017441958416 71.3184784364329 0 0 1
2752 4 10 0.139401 63.888829594144596 76.46417753646766 72.9413221164229 0 0 1
4728 7 1 0.131545 63.287764501245306 79.6609802889462 73.27176969125932 0 0 0
2748 4 1 0.133496 64.57920049477032 74.46767084401183 75.07124921952982 0 0 1
2722 4 12 -0.401645 69.4980813019136 77.4396729890019 71.48422216770057 0 0 1
2742 4 7 0.158897 66.59584947952061 74.9357061029055 76.31340864744179 0 0 1
2743 4 12 -0.404716 67.10407000394991 111.25903425536661 74.99734453168202 0 -1 1
4721 7 1 0.125858 63.064848401917644 78.83264503912132 75.29039761354119 0 0 0
2733 4 4 -0.08051899999999999 69.11106174512112 75.82824215830378 75.40943481794982 0 0 1
2723 4 9 0.14103 69.61166639717324 76.93587635081404 72.28875948672729 0 0 1
2744 4 9 0.146803 68.01701642143911 111.19263588486 75.3002589075137 0 -1 1
1102 2 9 0.152587 66.97094574623736 111.53950675612361 107.24765514931008 0 -1 0
2736 4 12 -0.398498 68.99733376885365 76.48727792607993 76.72375073447495 0 0 1
2762 4 1 0.130543 65.48412098620805 75.14770534421793 70.66127148266948 0 0 1
2760 4 3 -0.0447719 64.59494603399972 75.69358300217714 70.33091819092209 0 0 1
2761 4 4 -0.0724673 64.82949812734961 77.20285169852542 70.35623047862775 0 0 1
2763 4 7 0.161907 63.80139013017058 77.64315055521112 70.3350563961619 0 0 1
2735 4 7 0.155642 69.35392157395827 74.78602698333306 75.50223618351707 0 0 1
1096 2 10 0.13702 68.63429210965774 75.04515398715513 71.20837254041565 0 0 1
2732 4 3 -0.0530189 70.10519069727505 76.55898225745797 74.48041412935349 0 0 1
2726 4 4 -0.0784919 70.0514565211018 78.10126684394858 74.3750252439602 0 0 1
2734 4 1 0.134924 70.1431828970391 76.00242384608748 73.52488906079351 0 0 1
2729 4 12 -0.400593 70.72726253884443 78.63549822874292 75.5290492890166 0 0 1
2719 4 4 -0.0771377 69.98921690738653 78.73546028109226 71.86567363806614 0 0 1
2727 4 1 0.12808 71.66491178483466 77.86610048785226 72.98241923695913 0 0 1
1072 2 7 0.147958 74.28575115652652 76.79778310760217 72.44145436694149 0 0 1
2731 4 10 0.132342 71.03970701290258 76.29299294734913 74.92669980243333 0 0 1
2725 4 3 -0.0556835 70.82838576216862 78.58387463674198 73.15455716958026 0 0 1
1070 2 4 -0.082093 75.05782123442145 77.1428615753706 71.66291251400206 0 0 1
1079 2 7 0.156216 72.81471596813448 75.9780291605758 70.85235081416134 0 0 1
1065 2 7 0.154595 73.28875900990256 79.190716106896 71.72835755065411 0 0 1
1063 2 4 -0.0699828 74.18429495285854 79.47296833178682 72.3272064324265 0 0 1
1066 2 12 -0.392079 73.74414345694395 79.27504882922796 73.68726600718945 0 0 1
2720 4 1 0.123587 71.52626484682852 78.80189741880181 70.31313142113238 0 0 1
1124 2 10 0.134775 74.44222538268926 75.51420386732873 75.26558722987423 0 0 1
1076 2 3 -0.0593734 74.56138773063203 77.07231995680314 107.97577703181825 0 0 0
1067 2 9 0.149195 74.31727805971127 79.81677721222214 74.2113871159602 0 0 1
1117 2 10 0.133735 72.43395489242337 74.41400600014845 74.76284924182896 0 0 1
2718 4 3 -0.0531921 70.66093222376384 79.4458655514521 70.6929741687463 0 0 1
2724 4 10 0.131377 71.29095889707342 79.54869540456272 73.3374915063861 0 0 1
2730 4 9 0.145678 70.61434658183191 79.54707177676073 75.4736127857619 0 0 1
1081 2 9 0.140532 74.97345936512728 74.89067201060116 70.92941982753817 0 0 1
2717 4 10 0.135111 71.21658779710734 80.31698108160275 71.17535111348607 0 0 1
5592 8 7 0.144829 73.67063554042737 79.21078509488135 76.77965786357153 0 0 0
414 1 9 0.145742 72.45480003534537 111.2327698602744 77.12558780888989 1 0 0
1092 2 1 0.130012 70.55677602552272 76.66811680047512 107.3596363626363 0 0 0
1078 2 1 0.130006 74.06183997978304 78.03702353870551 107.68674667771164 0 0 0
1069 2 3 -0.0461822 75.39583145223062 78.5886730672603 72.04023488190892 0 0 1
1127 2 1 0.131355 75.30940693187395 75.15832664676655 73.81424247600896 0 0 1
1125 2 3 -0.0524906 75.05710127766092 74.72724059404104 74.73127314510083 0 0 1
1074 2 9 0.138039 76.37330051598826 76.00952895345331 70.9636354105007 0 0 1
1073 2 12 -0.407352 76.22898481508467 76.45010743872152 71.81119590278418 0 0 1
5599 8 7 0.155352 76.03652814221978 78.84446676233871 75.97817133117552 0 0 0
1068 2 10 0.131635 75.93304592050787 78.47305139861993 72.99613434405852 0 0 1
1071 2 1 0.138611 76.05843957662623 79.11644482601392 71.31170372624278 0 0 1
1134 2 1 0.126243 77.02557016015336 76.73079182715217 75.30821686789625 0 0 1
1139 2 3 -0.0591917 78.92685753493686 76.7557016336179 73.93973870082465 0 0 1
1141 2 1 0.131212 78.07557057386343 77.35096716331911 73.59841768663308 0 0 1
1133 2 4 -0.09350890000000001 78.46875059430397 75.42932226117472 74.42943428631116 0 0 1
1132 2 3 -0.06279609999999999 77.41696425369096 75.71591701574864 75.5038298956639 0 0 1
1140 2 4 -0.08166710000000001 79.96348134818366 76.66751737700157 72.89749442263951 0 0 1
1142 2 7 0.154183 79.84617560363839 75.7723432158371 72.38444446698672 0 0 1
1148 2 1 0.132311 79.64866110417118 78.7962220111612 72.65892520887122 0 0 1
1146 2 3 -0.0577076 80.06050798065787 77.93337071752363 72.08849941102638 0 0 1
1138 2 10 0.127348 79.3807444333271 77.29402794443963 74.79512582250197 0 0 1
1145 2 10 0.135441 81.15048648551362 78.10797435027774 71.88931288402209 0 0 1
1147 2 4 -0.0745349 79.29783444750925 77.75754444351581 70.76939070314874 0 0 1
1149 2 7 0.159912 78.23360344054022 77.42974259675461 70.93747990855734 0 0 1
1135 2 7 0.150371 77.94217566120889 74.89082977947619 73.62576648439243 0 0 1
1136 2 12 -0.412524 79.5189443255311 74.66926909742261 75.03693559237267 0 0 1
1126 2 4 -0.0854815 76.36591956612455 74.57420662826205 75.57730430180352 0 0 1
1131 2 10 0.130003 77.98517691313744 75.76794311678323 76.51486043398198 0 0 1
1143 2 12 -0.399438 81.20867178104879 76.5249127460582 73.55863807714694 0 0 1
3854 6 9 0.154948 81.7706129793981 76.86082219670432 75.89804777284104 0 1 0
1144 2 9 0.141708 81.10718168366574 75.77102055891129 74.15022882675228 0 0 1
1010 2 12 -0.406188 82.87805174275223 79.01126444497208 74.5846941997146 0 0 1
1008 2 1 0.13288 84.39933000089631 76.92353660295475 73.95750240394919 0 0 1
1006 2 3 -0.0540066 84.91037326142973 77.88192564296297 73.79805554090164 0 0 1
1005 2 10 0.132308 85.2960767715593 78.28202266382225 74.72468066938632 0 0 1
1000 2 4 -0.0802385 86.15016176294738 77.75918156392602 72.98207831993064 0 0 1
995 2 7 0.149878 84.6285209757458 75.48639575037022 72.4570124731055 0 0 1
1007 2 4 -0.0794846 83.84420817646675 78.93390458108857 73.4860346106853 0 0 1
999 2 3 -0.0550322 85.8133969819174 77.08175138831223 71.63283455647402 0 0 1
1009 2 7 0.159589 83.37968151864611 78.48687999126884 72.53670118736648 0 0 1
1002 2 7 0.153839 86.45210977530164 78.78569799050766 72.69908114179947 0 0 1
993 2 4 -0.081066 85.46029916747555 75.59839123754683 71.70328094222859 0 0 1
996 2 12 -0.414715 86.57831041437456 74.96114728378068 72.29032765083092 0 0 1
998 2 10 0.13393 84.97998638921487 77.59402879204589 71.16308522214312 0 0 1
1001 2 1 0.132413 86.56996670507401 77.35602444624972 70.86040445129079 0 0 1
992 2 3 -0.0540035 85.04845671139292 74.91325327196648 70.43546302912564 0 0 1
1011 2 9 0.140889 83.3017143672918 79.13579002602697 75.4407365987625 0 0 1
994 2 1 0.133566 85.39184143527089 111.61971918165337 70.27445667177889 0 -1 1
3853 6 12 -0.400297 82.45702735677965 76.12965981153941 76.05531972024265 0 1 0
988 2 7 0.155777 82.99401701814746 74.19233128576586 70.72629541113133 0 0 1
997 2 9 0.130789 86.74609980997566 75.48128457985311 73.11018092299645 0 0 1
772 2 12 -0.403127 87.6337518421267 111.69306787005395 75.12669390210196 0 -1 1
1003 2 12 -0.400969 87.21728899338851 77.12551751091306 73.63073088685816 0 0 1
1004 2 9 0.147166 86.90482264738876 76.46965765647793 74.17881120612508 0 0 1
773 2 9 0.148181 86.68558437304918 74.1083435420509 74.89523346865236 0 0 1
759 2 9 0.145596 89.38497639372221 76.00413398828965 72.42765070863811 0 0 1
1581 3 10 0.130133 90.75077918327865 77.40244866018402 73.83111187746975 0 0 0
1582 3 3 -0.0515727 91.02089083886887 78.02619185568524 74.65332854948922 0 0 0
1584 3 1 0.128828 92.06007174849776 78.28693555398776 74.59989664325376 0 0 0
1585 3 7 0.152654 89.16548424282158 79.21523279785269 74.73171443774554 0 0 0
758 2 12 -0.405773 89.5036237124568 75.21554281881112 73.00892000315186 0 0 1
4756 7 1 0.129862 93.36553260638728 75.88177605248272 73.73832830182154 -1 0 0
4750 7 7 0.15736 93.59481646768576 76.89648337703142 71.25080674858341 -1 0 0
755 2 4 -0.08094 90.5915708080639 74.50260345291488 72.38222036140822 0 0 1
1574 3 10 0.132606 91.7532409522306 75.43710910633897 75.39257069008039 0 0 0
1576 3 4 -0.081441 90.62885710147503 77.26307439643459 75.86618086780742 0 0 0
1575 3 3 -0.0493316 91.70947660690894 76.20237356943451 76.1530944876773 0 0 0
757 2 7 0.155407 91.46465286258015 75.23117409229613 72.17046406506647 0 0 1
1577 3 1 0.139487 92.7081851741607 76.68762800020973 76.10446520335512 0 0 0
1579 3 12 -0.397739 89.28385910246402 76.72055372461686 75.78906461504688 0 0 0
1580 3 9 0.140386 89.42726452721405 75.76466731359582 75.76025516868206 0 0 0
764 2 7 0.159373 89.93543381480403 111.72799827719368 75.00263351561676 0 -1 1
754 2 3 -0.0560902 90.0963543849477 74.02391800881327 71.00338486154992 0 0 1
4745 7 9 0.152692 94.95558451376733 77.24314376589811 106.68041730130813 -1 0 -1
1578 3 7 0.154703 90.6090101346508 77.94184130672417 76.67803014725774 0 0 0
1567 3 10 0.131594 91.9605171999925 111.38474753183476 77.39992362601609 0 -1 0
6073 17 11 -0.834 89.72012589794167 78.48737515082955 107.93901529128 0 0 -1
6074 17 6 0.417 89.061037197808 78.55531405101576 70.89380091548803 0 0 0
2755 4 1 0.138064 62.97030566659021 75.05921135255048 73.31867577809322 0 0 1
4752 7 9 0.152745 93.64932403886385 78.82627763863994 72.20627761722092 -1 0 0
4718 7 10 0.125123 99.864945899371 77.35812330326193 74.9882332306635 -1 0 0
2756 4 7 0.161078 100.37327178903972 75.99404565358986 71.17407974340914 -1 0 1
4725 7 10 0.128606 100.32237161013943 78.40782335527007 72.34804860168447 -1 0 0
4751 7 12 -0.399622 94.09719408442693 78.20514062625861 72.80611597034842 -1 0 0
4748 7 4 -0.0760412 94.35555176401888 77.03314540737456 72.05072464862029 -1 0 0
4754 7 3 -0.0544137 94.16140803653478 75.76194943030298 72.92216128551631 -1 0 0
4753 7 10 0.126991 93.97216584645423 74.80427334714567 72.3226347535295 -1 0 0
4758 7 12 -0.405285 95.77903247181098 76.40973144127247 74.67553383696288 -1 0 0
4719 7 3 -0.0608074 99.74957408553144 78.41153080677572 75.27540194594796 -1 0 0
4726 7 3 -0.0514555 100.06357166131488 79.31061550027067 72.9193145766502 -1 0 0
4757 7 7 0.154686 96.27691277845585 75.4617125971694 73.01680368040425 -1 0 0
4755 7 4 -0.08386979999999999 95.47226329776204 75.41329482722853 73.72454133848518 -1 0 0
4746 7 10 0.131364 96.43806822113001 77.5944877132074 72.09535826248968 -1 0 0
4747 7 3 -0.0462984 95.65873497781953 77.36676959279417 71.38385263425658 -1 0 0
4723 7 12 -0.391985 97.90360321316592 78.34777234089725 73.79202851227411 -1 0 0
4720 7 4 -0.075972 99.07323932196513 79.1124425193327 74.12875797430175 -1 0 0
4724 7 9 0.153828 98.25361473528115 77.58627238687308 73.3042938207737 -1 0 0
4767 7 10 0.12863 97.90443688606636 75.2506042067951 75.11070643915969 -1 0 0
4736 7 7 0.154138 98.27795963874192 77.7851278916786 71.02508324667774 -1 0 0
4743 7 7 0.151131 95.02932112987628 79.40114257540694 70.73821850161332 -1 0 0
4759 7 9 0.1444 95.01782924326172 76.4771743529325 75.15463078543489 -1 0 0
4749 7 1 0.131019 96.13338686746624 76.4928124977167 70.92689830805946 -1 0 0
4722 7 7 0.15422 98.8572901573555 80.13070769856395 74.57367969605026 -1 0 0
4734 7 4 -0.085038 98.119139545201 78.70692914169358 70.46733469309369 -1 0 0
4741 7 4 -0.08627650000000001 95.46970837052231 78.44702042987853 70.30799026412342 -1 0 0
4735 7 1 0.135151 97.35678774947522 80.22635078133324 71.79112998348289 -1 0 0
4733 7 3 -0.0541642 98.1781910057478 80.00225077001505 71.19709411341083 -1 0 0
636 1 7 0.158828 95.63321587766879 79.75319028196924 76.45604504635396 0 0 0
4737 7 12 -0.407147 99.16806131831287 78.83694316823953 107.31472026652109 -1 0 -1
2721 4 7 0.157267 69.20531961357824 79.4079669203926 72.19270655686724 0 0 1
4889 7 1 0.133467 66.86607078178085 79.75457466695026 75.95418937663948 0 0 0
4886 7 10 0.134402 65.20216786035819 80.37071312703215 76.10031170290883 0 0 0
5124 8 12 -0.408983 67.69999644259372 84.06970489909118 72.39683579059694 0 0 1
5127 8 3 -0.0541042 66.9818997733865 81.80542748536237 72.88629758128667 0 0 1
5129 8 1 0.126009 67.32992405158733 81.30000362312586 71.97989206678942 0 0 1
5128 8 4 -0.08009869999999999 65.58047518939546 82.48295391041803 72.67777071393715 0 0 1
5126 8 10 0.131968 66.96934165713219 81.01228780411657 73.70385703686385 0 0 1
5121 8 4 -0.0779372 67.94149289682078 83.01940520660214 73.30628712696183 0 0 1
5123 8 7 0.159856 67.79110352947879 83.44983151977608 74.28184170878515 0 0 1
5130 8 7 0.153998 65.50282204495126 83.34703188976215 73.2668041105455 0 0 1
5131 8 12 -0.400137 64.70640370429486 81.49399802057782 73.19082439029947 0 0 1
5125 8 9 0.138731 66.78525312375216 84.287685772399 72.43533816702357 0 0 1
5134 8 3 -0.0552125 65.38236773553842 82.69594853533339 71.20255469162413 0 0 1
5133 8 10 0.128582 64.74886848992686 81.82889620215948 70.8975404158226 0 0 1
5132 8 9 0.146519 64.07502116020724 81.30476957467629 72.54284755486763 0 0 1
5137 8 7 0.159882 65.39939068314277 84.82136935343827 71.06455206720898 0 0 1
5135 8 4 -0.0755675 64.70174044698908 84.01238242562795 70.78168324209162 0 0 1
5136 8 1 0.127443 66.33381085299015 82.72379976954338 70.65140905157735 0 0 1
4989 8 1 0.132549 68.22734911930446 85.7304953285814 74.87706307931737 0 0 1
5138 8 12 -0.38475 63.47995117183983 84.2376273117694 71.50090783882614 0 0 1
4993 8 10 0.133587 66.07514866656246 86.83237931704757 72.7633436697063 0 0 1
2716 4 9 0.135145 68.03825635727758 80.57222794465274 107.0218806825335 0 0 0
5139 8 9 0.157723 63.01587778386418 85.01149677699581 71.14726368424533 0 0 1
4991 8 12 -0.410556 65.79299450657243 86.35147694115145 75.08016966142645 0 0 1
5120 8 3 -0.0525414 69.38115800427515 82.69501542076912 73.22689783697682 0 0 1
5223 8 9 0.141164 71.478749437552 84.19082775905922 107.82916499876646 0 0 0
5119 8 10 0.133895 69.61210618329653 81.85696153227545 73.8591778122768 0 0 1
5118 8 9 0.142755 70.23516847862699 84.95476776529891 75.11532136478885 0 0 1
5122 8 1 0.130226 69.65253795216225 82.39815017149908 72.20010258937056 0 0 1
5117 8 12 -0.399983 70.17980930608026 83.95849964028689 75.0237882007241 0 0 1
5116 8 7 0.156904 70.17689484539096 84.72086351262683 73.04811355753165 0 0 1
5114 8 4 -0.083676 70.3751880884919 83.78724053515877 73.60270975133547 0 0 1
5113 8 3 -0.0493605 71.8496266631912 83.3171214663181 73.31418705866761 0 0 1
5112 8 10 0.133178 71.85303941370643 82.48479567605344 74.01263083957627 0 0 1
5107 8 4 -0.08587980000000001 73.04393553364655 84.33650577923493 73.66508750751805 0 0 1
5109 8 7 0.152853 74.03535459626427 83.86542755515697 73.59267373539274 0 0 1
5110 8 12 -0.400114 72.80661296878799 84.68859343940366 75.0268968856286 0 0 1
5115 8 1 0.132004 71.95417733728732 82.92560621775534 72.29362718228224 0 0 1
5105 8 10 0.139891 72.95131642917302 85.46204570820018 71.7851650177078 0 0 1
5106 8 3 -0.0423515 72.79798879462547 85.63305739066776 72.83697364331722 0 0 1
1056 2 4 -0.0826013 74.48994419422195 81.51758781277793 70.86662913136573 0 0 1
1061 2 10 0.13274 73.73411889248129 81.45173694364212 72.9422683167 0 0 1
5111 8 9 0.152084 73.35645545363481 85.42984162107797 75.23009627331767 0 0 1
1062 2 3 -0.0616764 74.49308618767773 80.95562126548397 72.23741670438895 0 0 1
1057 2 1 0.129903 74.57141860320053 83.65553402232858 71.38986469240643 0 0 1
1059 2 12 -0.407988 73.19405817599612 81.55452232845408 70.31045517137495 0 0 1
1060 2 9 0.142073 72.5016052156982 81.66436829772461 70.91707399957603 0 0 1
1055 2 3 -0.0534421 75.06446473877291 82.93347751695477 70.75082920878216 0 0 1
1058 2 7 0.147951 74.94083419823882 80.83104936040571 107.93764521932253 0 0 0
5222 8 12 -0.406273 70.67722266336195 84.5210752180566 70.46279629253576 0 0 1
5108 8 1 0.134547 71.76991829045875 86.08083575801105 72.88173576540856 0 0 1
5221 8 7 0.159515 70.97718163685096 86.5942815465599 70.46899499142138 0 0 1
1054 2 10 0.135458 74.97991826897355 83.30043415012828 107.51995933669424 0 0 0
5230 8 9 0.148527 72.62656643665028 83.67395138070108 106.25438591884075 0 0 0
5229 8 12 -0.402915 72.983744771228 84.4937407188127 106.61151176224729 0 0 0
5606 8 7 0.15953 77.75157280430686 80.22454139591936 74.95312115338625 0 0 0
1064 2 1 0.135924 75.4857958070751 81.14275704434384 72.79785525764855 0 0 1
5605 8 1 0.137478 76.2543133097247 81.25459387198228 76.76470030471972 0 0 0
5604 8 4 -0.06680270000000001 78.13160383893052 80.55769587061549 75.89404301706732 0 0 0
1044 2 7 0.154521 78.26223554109755 84.5223022140304 72.3710800650526 0 0 1
1042 2 4 -0.0833299 78.37432324270908 84.74311876348392 71.32322294275052 0 0 1
5611 8 4 -0.058808 79.58303814959146 82.21729641133884 74.6230586091152 0 0 0
5614 8 12 -0.39172 80.83858679184317 81.81053420152304 75.0934538610533 0 0 0
5610 8 3 -0.0455931 78.47600083004991 82.05328492643947 75.70409480255272 0 0 0
1049 2 4 -0.090499 76.58956354192595 83.03333044546319 71.11602482144525 0 0 1
1051 2 7 0.15179 76.98351369856461 82.92375704845907 72.12929472216635 0 0 1
1050 2 1 0.127761 76.32402518152422 85.15928577392907 71.22708995201663 0 0 1
1048 2 3 -0.0598687 77.02900523493274 84.41518199058352 70.83654063584096 0 0 1
5616 8 9 0.160055 81.4286197940597 82.44569204022022 74.76276942582842 0 0 0
1041 2 3 -0.0496654 78.65731803068951 86.22293121676283 71.22797920628972 0 0 1
5615 8 8 0.160243 79.60657973866346 83.22343895518281 74.19234195381372 0 0 0
1037 2 7 0.157925 80.68276963341228 85.83491069250645 70.82227196162687 0 0 1
5613 8 7 0.158976 79.36555981170403 81.67456342020064 73.6855291965185 0 0 0
1036 2 1 0.140123 80.41229486326844 85.17843897104999 73.10407700450892 0 0 1
1045 2 12 -0.403773 79.4435328136082 83.99634535877365 70.7204438147153 0 0 1
5612 8 1 0.14422 77.63367478988442 82.6447745407824 75.31149396315881 0 0 0
1046 2 9 0.152719 79.95143689956 83.53207507044388 71.40802906626196 0 0 1
1035 2 4 -0.0745488 80.1156564396669 86.50632566985861 71.45318639776355 0 0 1
1052 2 12 -0.414864 77.27660810632648 82.08071371271511 70.30040620566425 0 0 1
1053 2 9 0.135974 76.72084596728828 81.97523636039453 107.3321396400722 0 0 0
1018 2 9 0.14767 81.38146655582933 81.6030445203088 72.9094875296695 0 0 1
1023 2 7 0.146818 81.77000779927424 83.70903328140157 73.29871892851186 0 0 1
1838 3 12 -0.413287 77.14732566815948 85.54701185740663 76.24044241159679 0 0 0
1839 3 9 0.138257 77.61192432683143 85.81290040021301 75.43303445214367 0 0 0
1012 2 10 0.131549 84.6458164596331 80.39707562876588 72.12583031092294 0 0 1
1602 3 10 0.133463 86.16086460568825 80.40365947398271 75.79351762896053 0 0 0
1025 2 9 0.134935 82.56520553083362 84.88199393433214 75.04664176854509 0 0 1
1013 2 3 -0.0521039 84.27781202579834 80.39415582879425 73.1708859885941 0 0 1
1015 2 1 0.130932 85.18038083832323 80.64348620888777 73.75178521465605 0 0 1
1017 2 12 -0.404001 82.0425142522125 81.06108159241658 72.58488794581545 0 0 1
1024 2 12 -0.409064 83.03979354301154 84.04935473378099 74.87269826749653 0 0 1
1016 2 7 0.154236 82.86176457025041 81.40785633126248 74.36076582806973 0 0 1
1014 2 4 -0.0834733 83.16258752459665 81.40498448506624 73.30220469214414 0 0 1
1021 2 4 -0.0872843 82.88899201690315 83.97193062933478 73.43987048568205 0 0 1
1026 2 10 0.132851 83.17059119158148 85.11035905424912 71.60583502433037 0 0 1
1022 2 1 0.129236 84.75520858054945 82.93695631232076 72.98649489517032 0 0 1
1020 2 3 -0.0546894 83.65270641174811 82.81101000479062 72.85750755882786 0 0 1
1027 2 3 -0.0473342 83.13127482784188 85.27377453178755 72.68517702619705 0 0 1
1029 2 1 0.130032 84.14269944184545 85.59742535610356 72.85319159492177 0 0 1
1019 2 10 0.128431 83.45767188496438 82.72428218302663 71.79122293728729 0 0 1
2381 4 10 0.134345 86.02664709046087 83.61116673927775 71.14127763253335 0 0 1
2386 4 12 -0.388457 87.05987362452287 85.83301252961873 71.09361845452388 0 0 1
2382 4 3 -0.0486946 86.82244279527366 83.56969463167913 70.47899505851213 0 0 1
1595 3 10 0.139659 88.07488599457406 81.19977752353573 74.67306399454606 0 0 0
2379 4 12 -0.39164 87.80116427189351 82.0278158213511 72.01247591121162 0 0 1
2380 4 9 0.159164 87.38121223846011 81.32795646487399 71.49038670587535 0 0 1
1598 3 1 0.134248 88.1573783083105 82.68872328647339 75.6543449407897 0 0 0
2376 4 4 -0.0731743 88.1530375067215 83.08464859957725 71.13308621479423 0 0 1
2378 4 7 0.158928 88.60840745098086 83.89139892411393 71.71198119027585 0 0 1
2387 4 9 0.153964 87.92836964200798 85.99322096379628 71.49241216824363 0 0 1
1603 3 3 -0.0488199 86.55602136602482 80.8935532068683 76.69341591201943 0 0 0
1583 3 4 -0.0780531 90.27705854585199 79.40986338634448 74.53065022923327 0 0 0
1586 3 12 -0.400899 90.3608736473028 79.79724705425987 73.11718062293974 0 0 0
1587 3 9 0.148644 89.83486987551309 80.58678467282029 73.09159491576541 0 0 0
1596 3 3 -0.0427374 88.58492925727897 81.68895117023092 75.53926719197808 0 0 0
1589 3 3 -0.050528 90.89044880482001 80.52847155541313 75.34065915001307 0 0 0
1588 3 10 0.132256 91.92905325019169 80.73673289625302 74.94604759798136 0 0 0
1592 3 7 0.14653 90.27929113132343 82.33867218060996 74.42471723733436 0 0 0
1590 3 4 -0.0885749 90.08026982988193 81.82011589643416 75.34962305226549 0 0 0
2817 5 10 0.137961 92.07623738722246 84.06219993458878 74.09412567528135 0 0 1
2818 5 3 -0.0346955 92.392223495926 85.11481850373696 73.85429448995613 0 0 1
2819 5 4 -0.07429230000000001 93.73234558320476 84.93990033403415 73.1657832289344 0 0 1
2828 5 7 0.159439 92.57489397192984 83.0571158514991 72.07542936400198 0 0 1
2810 5 3 -0.0441895 89.9446901166878 85.57199856154917 73.61947468332743 0 0 1
2811 5 4 -0.0516455 91.29816012219077 85.88351661418994 73.06370671098672 0 0 1
1593 3 12 -0.399466 90.52243371087242 82.64011618385358 76.44140858772991 0 0 0
2820 5 1 0.134929 92.45035668294965 85.52757944850765 74.89427951073633 0 0 1
2821 5 7 0.158534 93.66506781926508 85.21370334593603 72.07411163790913 0 0 1
2813 5 2 0.146021 89.7139510057732 84.47472145035243 73.56039203465619 0 0 1
2809 5 10 0.152992 90.02334482176904 85.74941602958924 74.6866631243115 0 0 1
2826 5 4 -0.07364080000000001 93.67354819685184 82.76190067929393 72.10032130649917 0 0 1
2824 5 10 0.131136 94.24883284906055 83.10779156480382 74.24145382862442 0 0 1
2815 5 12 -0.388806 91.16462603907785 85.4666277852438 71.72963906178727 0 0 1
2816 5 9 0.140748 90.21447151596873 85.39206140654807 71.50512129270363 0 0 1
2825 5 3 -0.0518016 94.29723375331521 83.53171755510193 73.24237832943835 0 0 1
2377 4 1 0.125486 89.92180850820694 82.1029263114551 70.63891321544412 0 0 1
1591 3 1 0.134631 90.95275405899426 80.15279069574144 76.32675928476894 0 0 0
1594 3 9 0.146608 90.0642039251507 82.29435053466311 77.2163947295952 0 0 0
2830 5 9 0.146433 93.2834838051647 81.38866743563268 73.4007085266817 0 0 1
2822 5 12 -0.401331 94.73570166786179 85.85529690828892 73.64394579527432 0 0 1
1599 3 7 0.153128 88.34709046056568 79.82324775498331 76.76511958351163 0 0 0
1597 3 4 -0.0857487 88.04542753026384 80.9267858567112 76.75461482629177 0 0 0
4729 7 7 0.142828 100.34009341774367 80.30585832042897 71.0655516450224 -1 0 0
4731 7 9 0.146791 99.61529850432244 82.04711559341784 71.69682931515447 -1 0 0
645 1 9 0.131898 95.379718597049 81.8029499595314 74.76262254576642 0 0 0
2829 5 12 -0.403946 93.58820605593827 81.3491667935289 72.50063917628606 0 0 1
4727 7 4 -0.07555000000000001 99.54067972977906 80.28680130214833 71.82743916035034 -1 0 0
2832 5 3 -0.0536191 94.47958159837017 82.79859829246733 70.81359651786317 0 0 1
2834 5 1 0.130502 94.84813148757627 83.80742766241106 70.61585380406515 0 0 1
2827 5 1 0.135179 95.395205002359 83.5673433605478 73.00968053813283 0 0 1
657 1 7 0.161998 99.88608431886728 85.821701394949 74.34432415225048 0 0 0
652 1 9 0.153692 99.25300411059453 83.5835203682564 75.94009304280091 0 0 0
4730 7 12 -0.395453 99.35001911357668 81.55061352586291 72.40254795759917 -1 0 0
644 1 12 -0.404116 96.30391835343046 81.5876181768761 74.85474959544173 0 0 0
651 1 12 -0.393041 98.98499501501796 83.37222541204235 75.05401377238408 0 0 0
650 1 7 0.161116 97.28937104751542 83.69555160927854 73.97405308382747 0 0 0
648 1 4 -0.0765005 97.70010199984796 84.03587298675002 74.92037994862999 0 0 0
641 1 4 -0.0862912 96.69825723342343 82.09840442533803 76.11870954108582 0 0 0
647 1 3 -0.050438 96.81400996850617 83.57379731580104 76.08067623055814 0 0 0
654 1 3 -0.0446174 97.89168539098262 85.56070620515791 75.00535740274762 0 0 0
653 1 10 0.135564 98.18175356873513 85.85645108432949 76.01346805251818 0 0 0
658 1 12 -0.396425 98.53431656589422 85.69146293098572 72.71183796741006 0 0 0
649 1 1 0.1381 95.83895512658393 84.03370373695378 75.91636205787154 0 0 0
656 1 1 0.130723 96.87435914374285 85.96267978687017 74.83669262673044 0 0 0
655 1 4 -0.07226730000000001 98.90148860555249 86.1620730349809 73.98419232753963 0 0 0
659 1 9 0.153563 97.66236790050569 85.36077216974279 72.9146742360078 0 0 0
2831 5 10 0.1336 95.37092279997029 82.17547913165959 70.99506227687706 0 0 1
4732 7 10 0.133925 98.15762602030756 80.81605514899643 70.5297875345257 -1 0 0
643 1 7 0.150156 97.69660948585671 81.66186279623129 76.4157649304192 0 0 0
2823 5 9 0.138282 94.87690513480202 85.60205285994255 74.53748552854961 0 0 1
604 1 10 0.128217 93.71549084019091 86.54470741754106 76.51703361740863 0 0 0
2948 5 12 -0.394959 96.43267494374983 86.55173018262988 70.96979073796959 0 0 1
4999 8 9 0.147289 65.4059499054908 89.73560894338031 71.29713595374061 0 0 1
4996 8 1 0.133089 67.48589474671404 87.85202583845641 72.64909618773169 0 0 1
4994 8 3 -0.0535156 66.58997142567627 87.67162669004975 73.26330572482036 0 0 1
4998 8 12 -0.400581 65.55308490052977 88.84236681084761 71.57979693886026 0 0 1
5000 8 10 0.127703 67.60475133766136 90.17993821322008 72.71373088605009 0 0 1
4995 8 4 -0.0897299 65.79065739071495 88.9385045147807 72.99951978657099 0 0 1
5001 8 3 -0.054933 66.63262343768817 90.21884111063507 73.25103639550365 0 0 1
5003 8 1 0.132879 66.92788736239454 90.46874403958695 74.31669649578888 0 0 1
4997 8 7 0.149518 64.81513840015981 89.00242745780741 73.61030871796423 0 0 1
5002 8 4 -0.084874 65.82582567031984 91.36885998342616 72.59840429864975 0 0 1
5004 8 7 0.150912 64.78695046374149 91.5597943440202 72.93758759781154 0 0 1
5005 8 12 -0.412603 65.96184345375902 91.3763002133019 71.15667207656469 0 0 1
5006 8 9 0.135448 66.843347164021 91.52864227725965 71.09759480830076 0 0 1
4610 7 7 0.162019 64.73514413383798 91.18309671614594 75.81420557306684 0 0 0
4988 8 4 -0.0755078 66.77983766104589 87.36991220188354 74.77529210267205 0 0 1
4990 8 7 0.158941 66.634477011891 88.29857286906837 75.41453846085088 0 0 1
4987 8 3 -0.0504578 68.19782220134952 86.83321125706493 75.22375859137976 0 0 1
4611 7 12 -0.388879 62.76825010967891 91.8899635691183 75.57032604678437 0 0 0
5008 8 3 -0.0596789 66.56056507719529 92.61920136239502 73.09224157188517 0 0 1
5007 8 10 0.128366 67.57343622071821 92.73511966057511 72.6725113334605 0 0 1
5010 8 1 0.133446 66.74618427120394 92.56367711790224 74.1731191255219 0 0 1
4979 8 10 0.130646 68.63745388039126 89.34759605409171 75.25218967961233 0 0 1
5220 8 1 0.132833 68.7048182694121 86.34752862434075 70.9919870225862 0 0 1
5210 8 10 0.133721 69.19098631505449 88.80592132681423 70.7672041792748 0 0 1