LAMMPS data file via write_data, version 15 Sep 2022, timestep = 2500058

6084 atoms
14 atom types
6080 bonds
11 bond types
11116 angles
19 angle types
17688 dihedrals
20 dihedral types

62.659039540309536 100.42796845967881 xlo xhi
73.96703354032176 111.73596245967714 ylo yhi
70.26603754032179 108.03496645967716 zlo zhi

Masses

1 1.00794
2 1.00794
3 12.0107
4 12.0107
5 1.00794
6 1.008
7 1.00794
8 1.00794
9 1.00794
10 1.00794
11 15.999
12 15.9994
13 15.9994
14 28.085501

Pair Coeffs # lj/cut/coul/cut/omp

1 0.038 2.44997
2 0.038 2.44997
3 0.039 3.87541
4 0.039 3.87541
5 0.038 2.44997
6 0 1
7 0.038 2.44997
8 0.038 2.44997
9 0 0
10 0.038 2.44997
11 0.1521 3.1507
12 0.228 2.85978
13 0.228 2.85978
14 0.04 4.05343

Bond Coeffs # harmonic/omp

1 340.618 1.105
2 340.618 1.105
3 322.716 1.526
4 340.618 1.105
5 340.618 1.105
6 340.618 1.105
7 384 1.42
8 540.634 0.96
9 450 0.9572
10 540.634 0.96
11 392.8 1.665

Angle Coeffs # harmonic/omp

1 39.5 106.4
2 44.4 110
3 39.5 106.4
4 44.4 110
5 39.5 106.4
6 46.6 110.5
7 44.4 110
8 44.4 110
9 70 109.5
10 46.6 110.5
11 44.4 110
12 58.5 106
13 33.3 113.4
14 55 104.52
15 39.5 106.4
16 57 109.5
17 57 109.5
18 42.3 113.1
19 31.1 149.8

Dihedral Coeffs # harmonic/omp

1 0.158 1 3
2 0.158 1 3
3 0.158 1 3
4 0.158 1 3
5 0.158 1 3
6 0.158 1 3
7 0.158 1 3
8 0.13 1 3
9 0.158 1 3
10 0.158 1 3
11 0.158 1 3
12 0.158 1 3
13 1 1 3
14 0.13 1 3
15 0.13 1 3
16 0.158 1 3
17 0.158 1 3
18 0.158 1 3
19 0.158 1 3
20 0.3 1 3

Atoms # full

2753 4 3 -0.0505132 65.12574678524258 77.95523284723473 71.80931300643198 0 0 1
2747 4 4 -0.0862696 64.71087197776981 76.83414764015609 72.76064249470491 0 0 1
2750 4 12 -0.404023 64.89525649601035 77.20348604489072 74.1338992406093 0 0 1
2755 4 1 0.138064 66.15487898907547 78.32632669928617 71.95231191005382 0 0 1
2740 4 4 -0.0772326 66.94856046096837 75.46081519576042 72.43704440538343 0 0 1
2754 4 4 -0.0765786 64.09995338673302 79.03130318732015 71.7782333884311 0 0 1
2741 4 1 0.132427 67.06014852150008 75.82868718806579 74.61929821896838 0 0 1
2743 4 12 -0.404716 67.2920427934335 76.112585862632 71.18526735428458 0 0 1
2738 4 10 0.132983 67.42895853154718 77.18068016681565 73.7961612657146 0 0 1
2739 4 3 -0.0546295 67.58589742123763 76.14230504713034 73.70117033341376 0 0 1
2746 4 3 -0.0565357 65.38717611437036 75.45211505674285 72.43883248117751 0 0 1
2751 4 9 0.131964 64.13191388842428 76.83043031465604 74.62980732891265 0 0 1
2749 4 7 0.150187 63.603598708148006 76.4787912691658 72.59526227266001 0 0 1
2748 4 1 0.133496 65.05624809802667 75.00746621806115 71.42051960493227 0 0 1
2756 4 7 0.161078 64.177160872893 79.59649645815567 72.68767777576869 0 0 1
2744 4 9 0.146803 67.46297220904346 75.4083096432798 70.58233757152877 0 0 1
2745 4 10 0.133872 65.06715435442203 74.65669472347679 73.07428624166354 0 0 1
2742 4 7 0.158897 67.3950633536948 74.4663761097638 72.47803065964774 0 0 1
4891 7 12 -0.413507 66.84651147967378 79.93183212373424 74.09483892494448 0 0 0
4892 7 9 0.135012 67.60448391870825 79.96300489101715 73.49004080776862 0 0 0
2727 4 1 0.12808 68.42726417870043 78.41546744933733 71.74268874655556 0 0 1
2760 4 3 -0.0447719 64.29405419583138 80.11981926643197 70.71373514100577 0 0 1
2757 4 12 -0.393024 62.70251900240838 78.58494653738317 71.73017838506472 0 0 1
2758 4 9 0.153701 62.67416770666506 78.26909887610157 72.64178377713745 0 0 1
2752 4 10 0.139401 65.2044284394608 77.37532702355486 70.8298503593354 0 0 1
2737 4 9 0.149923 68.69408479506305 76.30136240105894 75.7525096867443 0 0 1
418 1 1 0.137034 65.71209700286617 74.88655123010659 76.27126642158314 1 1 0
4879 7 10 0.132162 64.72643271189828 79.24788113095619 76.34461174732107 0 0 0
4882 7 1 0.130094 66.58021369354695 79.26928298592 76.5280674243885 0 0 0
2733 4 4 -0.08051899999999999 69.10803654776335 75.79249157071095 73.93390995842053 0 0 1
2735 4 7 0.155642 69.31029316011748 74.67539506015898 73.84418304943182 0 0 1
2736 4 12 -0.398498 69.51062613490174 76.293657106119 75.19034305423433 0 0 1
2728 4 7 0.152552 69.41564834332793 78.15178852045983 73.66590456078158 0 0 1
2730 4 9 0.145678 71.31762899247967 79.1781303048491 72.665662137836 0 0 1
2734 4 1 0.134924 69.83171594912332 75.77426789263802 71.97988412861523 0 0 1
2726 4 4 -0.0784919 70.10759627433438 77.80643868920005 72.88820891040973 0 0 1
2732 4 3 -0.0530189 70.12243065505237 76.24814893552043 72.93753276676611 0 0 1
2729 4 12 -0.400593 71.37855118392788 78.29684967470106 73.02411243083188 0 0 1
2725 4 3 -0.0556835 69.51023682665611 78.34682743021663 71.58722181684945 0 0 1
2731 4 10 0.132342 71.11181930880402 75.78987260831245 73.19965416923421 0 0 1
5602 8 10 0.132274 73.22567908756736 78.16732646520289 74.68270543705064 0 0 0
1063 2 4 -0.0699828 73.79175788532675 77.12712876139018 70.82468312343984 0 0 1
2724 4 10 0.131377 69.48939387861483 77.63237280594889 70.78805125574226 0 0 1
2719 4 4 -0.0771377 69.99049545664117 79.7008753704555 71.02027048576227 0 0 1
1065 2 7 0.154595 73.39469746938146 77.30422972145476 71.80388406848328 0 0 1
5605 8 1 0.137478 73.8933244674775 76.7219848042522 75.39434527004391 0 0 0
2721 4 7 0.157267 71.10056922735255 79.8117145437266 71.01054296250788 0 0 1
5603 8 3 -0.0517908 73.5056748837486 77.68924899333861 75.67547452461869 0 0 0
1058 2 7 0.147951 73.41462855602279 79.71442765636331 71.57748044985364 0 0 1
5598 8 1 0.13096 70.84442960039917 78.98482663843114 75.89562428727098 0 0 0
1071 2 1 0.138611 72.56302753754625 75.42859115401447 70.85103560831102 0 0 1
1056 2 4 -0.0826013 74.3163888777395 79.6475942729149 70.95496597907933 0 0 1
5609 8 10 0.141843 74.94108308887724 79.77143230124373 74.50860489626331 0 0 0
5604 8 4 -0.06680270000000001 74.67636679771822 78.52165171056312 76.24373960869167 0 0 0
1066 2 12 -0.392079 74.94029749974277 76.35630201280085 71.0819724773144 0 0 1
1123 2 9 0.14024 73.19825558967119 74.97291962365603 73.57542589386655 0 0 1
1122 2 12 -0.401959 72.97308013720176 74.26879161098383 74.20985045996638 0 0 1
1130 2 9 0.145114 73.96144325471988 74.4338781000868 71.96100929897136 0 0 1
5599 8 7 0.155352 71.68290969608366 76.78237128826252 76.28219056900294 0 0 0
5610 8 3 -0.0455931 75.46738759704124 78.96155996851569 75.06045839488027 0 0 0
3866 6 7 0.14761 75.70682742895677 74.70695962398317 75.40473767048924 0 1 0
5612 8 1 0.14422 75.48304038767442 78.10953572939846 74.30340836950361 0 0 0
3858 6 1 0.125925 79.85109785966374 75.9492523176577 74.19628691167806 0 1 0
3856 6 3 -0.0608161 80.17375287573431 75.51480298732504 75.19089864766273 0 1 0
3857 6 4 -0.0862446 78.86271838334366 75.40759151521372 76.07416158709646 0 1 0
3865 6 1 0.132421 77.51678234326225 75.25459181650184 74.32952272914322 0 1 0
3863 6 3 -0.0537342 77.788110370524 74.69945017923709 75.32485731465351 0 1 0
3864 6 4 -0.0808856 76.51444617826112 74.57169804505992 76.163934854796 0 1 0
5611 8 4 -0.058808 76.83109109339506 79.45558695339135 75.47729244545354 0 0 0
1059 2 12 -0.407988 75.40748776628183 79.38078333828885 71.8189218985325 0 0 1
3855 6 10 0.125095 80.5508788270371 74.49720430705729 74.86312128556912 0 1 0
5613 8 7 0.158976 77.39735131581969 79.84357473354984 74.60666343474482 0 0 0
3850 6 4 -0.08436589999999999 81.217430511717 76.44157114310553 75.86685717077948 0 1 0
1067 2 9 0.149195 75.67724898018112 76.9640105615012 71.14150131061301 0 0 1
1060 2 9 0.142073 75.21651825403708 78.45259358059953 72.20280363661466 0 0 1
3854 6 9 0.154948 79.94941377160548 77.80181033017023 75.97000740785336 0 1 0
5616 8 9 0.160055 78.44346862159823 78.89672644608078 76.32228782180324 0 0 0
5614 8 12 -0.39172 77.6390590145396 78.41529475214395 76.03264040508736 0 0 0
3853 6 12 -0.400297 80.54906994310133 77.44303325633805 76.65886166506841 0 1 0
1143 2 12 -0.399438 78.7284515184851 74.07084176617828 70.46485623346175 0 0 1
1144 2 9 0.141708 78.76081217837518 111.43726686560001 71.37825441611047 0 -1 1
3859 6 7 0.152235 78.49628786275231 76.35952599265056 76.43020087012691 0 1 0
5606 8 7 0.15953 75.23317677189226 77.68304255505494 76.69226729983347 0 0 0
3852 6 7 0.153777 81.81981494211047 77.01096735812584 75.12889677456057 0 1 0
1004 2 9 0.147166 82.79720703743807 75.21535786023773 71.97609533791608 0 0 1
1003 2 12 -0.400969 82.37163193774927 76.01570900069008 72.3159483501142 0 0 1
1008 2 1 0.13288 81.9732126697061 78.76978382221387 70.95738461363345 0 0 1
1600 3 12 -0.400195 85.68367017809477 78.57183008365611 75.50782228486511 0 0 0
1007 2 4 -0.0794846 83.60622107620672 79.18256707330085 72.23179235981917 0 0 1
1006 2 3 -0.0540066 82.47330555946965 78.27903763175676 71.80670038543012 0 0 1
1009 2 7 0.159589 84.18737658850652 78.73270269853465 73.09066878773379 0 0 1
1005 2 10 0.132308 81.81991403300052 78.26303110458088 72.69358872000073 0 0 1
1000 2 4 -0.0802385 82.93494177580352 76.89172211818233 71.3872944254102 0 0 1
1010 2 12 -0.406188 84.40818520668753 79.24056036257434 71.06916386889309 0 0 1
1002 2 7 0.153839 83.9961102475477 76.78622540573473 71.32734033848132 0 0 1
1601 3 9 0.152098 86.0577714853019 78.64006073062335 74.62197009843123 0 0 0
1011 2 9 0.140889 85.11600465651803 79.84109755417927 71.22744660642246 0 0 1
1597 3 4 -0.0857487 86.62999887099676 79.27042163876592 76.3553795610296 0 0 0
1606 3 7 0.15762 84.25847068523436 80.22283818962381 76.2716240996999 0 0 0
3851 6 1 0.131616 82.526536707865 74.69120092819281 76.139892529482 0 1 0
997 2 9 0.130789 84.20019526586651 74.68047488710637 106.99244095752206 0 0 0
3845 6 7 0.157235 84.15781843629175 76.51820140074523 76.38597429735617 0 1 0
1615 3 9 0.139907 81.77805026092594 80.22121624576943 76.50454326310981 0 0 0
1592 3 7 0.14653 87.12331039338133 76.76666748903808 75.11866865292279 0 0 0
1590 3 4 -0.0885749 88.04337790268019 77.33607015033849 75.45484317197369 0 0 0
1593 3 12 -0.399466 88.53820429602057 78.20169155129284 74.3871094445945 0 0 0
1594 3 9 0.146608 89.34064026179374 77.74910804002273 73.94337163879639 0 0 0
4751 7 12 -0.399622 92.37481129105542 78.83469609149496 73.48050709098457 -1 0 0
1588 3 10 0.132256 89.53831107216298 75.72504976548574 74.90568487609178 0 0 0
4752 7 9 0.152745 92.73708115369618 79.5893074676847 74.04797728161724 -1 0 0
4756 7 1 0.129862 92.41726010682945 76.36648939148586 72.73099372129353 -1 0 0
1589 3 3 -0.050528 89.2292565331787 76.32263483078327 75.8148932609991 0 0 0
4750 7 7 0.15736 93.3075537534032 78.30687440525425 71.66783836197017 -1 0 0
4758 7 12 -0.405285 92.59730671449834 76.88455069144203 75.35429510914288 -1 0 0
4763 7 1 0.128422 92.48243378665367 74.24651255769241 75.1002862577928 -1 0 0
4754 7 3 -0.0544137 93.40889335156096 76.70847565966275 73.10933968218632 -1 0 0
772 2 12 -0.403127 90.35385261227742 74.01824996000431 72.71001667220321 0 0 1
1591 3 1 0.134631 90.08587159046888 76.939438132388 76.00056870760457 0 0 0
773 2 9 0.148181 91.0918563623923 74.08466285741032 73.27519823004891 0 0 1
4759 7 9 0.1444 92.07967240865787 77.53355092363287 74.8497490995595 -1 0 0
764 2 7 0.159373 91.60589655917335 75.14801113846167 70.78658262836758 0 0 1
4748 7 4 -0.0760412 93.45332051273317 78.21293929017142 72.78829620450117 -1 0 0
762 2 4 -0.08093889999999999 91.93275133326183 74.16485764014674 70.40951678187155 0 0 1
4761 7 3 -0.0564952 93.4115530807128 74.65790029353197 74.65061976211635 -1 0 0
4755 7 4 -0.08386979999999999 93.54724859116 76.23819577688514 74.55190749078703 -1 0 0
4760 7 10 0.127801 93.25904191170038 74.28540657869975 73.64741756867524 -1 0 0
2809 5 10 0.152992 89.56848479288915 79.49844776542174 72.3329313020359 0 0 1
2820 5 1 0.134929 91.61903653823651 80.10880234365587 70.74605572628568 0 0 1
4779 7 12 -0.399727 100.31588898318225 75.19124694332142 74.90695728117115 -1 0 0
4780 7 9 0.138399 100.26656006318339 75.61416350128813 74.0362565401717 -1 0 0
4728 7 1 0.131545 100.33824797495436 79.68281638162597 75.60989076912989 -1 0 0
4753 7 10 0.126991 93.99014722022383 76.22317680391605 72.34972452676197 -1 0 0
1332 2 12 -0.398529 99.65169150012453 74.0979143510162 70.80911365799727 -1 0 1
4757 7 7 0.154686 94.55342210705982 76.41880278938962 74.99270055960682 -1 0 0
4747 7 3 -0.0462984 94.7073146433602 79.00742495977877 73.22459477386406 -1 0 0
4746 7 10 0.131364 94.67148502717947 79.02113265738227 74.37145860843111 -1 0 0
4749 7 1 0.131019 95.5620598920628 78.38880842885949 72.93149080851364 -1 0 0
1325 2 12 -0.400572 98.48842251873232 76.52288720004921 71.9979091486573 -1 0 1
4725 7 10 0.128606 98.62476086455334 79.34015039176322 75.30995343286126 -1 0 0
4778 7 7 0.159099 98.24655443322416 75.55982813637951 75.26727055901746 -1 0 0
1326 2 9 0.145691 98.3780420050092 77.34187282889091 72.54191590425629 -1 0 1
4767 7 10 0.12863 96.35548624829516 75.05817335679735 74.38939352409098 -1 0 0
4765 7 12 -0.400939 95.01570242854861 74.31654742044178 76.45812584728998 -1 0 0
1320 2 10 0.131381 98.11043719917927 78.69763164637773 70.79399983876357 -1 0 1
4776 7 4 -0.0806016 98.99088101032662 74.74828497914324 75.21546683188498 -1 0 0
4717 7 9 0.137908 96.93250684268472 79.18131922996328 76.39232951540487 -1 0 0
4768 7 3 -0.058433 95.87016627198238 74.09161070855797 74.13728203772943 -1 0 0
4770 7 1 0.12933 95.5386642210458 74.2315545901589 73.16856747257597 -1 0 0
1322 2 4 -0.07841190000000001 97.68712982078424 76.61942554304864 70.81588461079419 -1 0 1
1324 2 7 0.152596 96.61538007908868 76.68003858526596 71.14041198086464 -1 0 1
4736 7 7 0.154138 97.32549426900923 79.83543768575325 73.69685099401177 -1 0 0
4726 7 3 -0.0514555 99.29825724939293 80.19605343743567 75.5494761452027 -1 0 0
4744 7 12 -0.396059 94.89005652022777 80.3101437997524 71.15149428776091 -1 0 0
4774 7 10 0.140006 98.37552646069818 74.34548337749135 73.26556154925855 -1 0 0
1333 2 9 0.149937 100.11799049799998 74.60061345442301 71.40254454549928 -1 0 1
2759 4 10 0.135492 65.11808017999661 80.76961770141506 71.04829600261704 0 0 1
4890 7 7 0.144444 67.17845256379715 81.7946021161117 73.54973166846595 0 0 0
4888 7 4 -0.084774 67.07602352033246 81.21506584322965 74.55022502022827 0 0 0
4889 7 1 0.133467 64.92652345583296 81.36880053814913 74.72239545820575 0 0 0
4887 7 3 -0.0575211 65.81419405486236 81.7380413788932 75.32461116089547 0 0 0
4886 7 10 0.134402 65.84389620697296 82.87296355327186 75.40886841486808 0 0 0
4986 8 10 0.129257 67.03261012644239 84.9922920011029 75.45655579922254 0 0 1
5130 8 7 0.153998 64.33998011411045 84.43466436898903 70.80830114971313 0 0 1
5116 8 7 0.156904 67.97294623005453 84.67015239354112 72.32762080846018 0 0 1
2762 4 1 0.130543 63.36677237118285 80.75361272801241 70.77471906107779 0 0 1
5125 8 9 0.138731 67.07477604795243 82.673083258026 70.84640252673202 0 0 1
5114 8 4 -0.083676 68.36379672585191 85.07008653629062 71.36962359656413 0 0 1
4894 7 3 -0.0513493 68.43569067926393 81.3008096027136 75.324300416864 0 0 0
5122 8 1 0.130226 66.37982992881737 85.9107080262346 70.92787401523901 0 0 1
4987 8 3 -0.0504578 67.23354032149021 86.00539316441808 75.07795955237087 0 0 1
4989 8 1 0.132549 67.84480716948791 85.62289996379121 74.28035992721942 0 0 1
4897 7 7 0.153252 68.30817471172827 83.22058688497887 76.18142596346222 0 0 0
4896 7 1 0.133789 68.28170065815908 80.9689529898491 76.39154691292829 0 0 0
4898 7 12 -0.396396 68.7918175352918 83.33687808004224 74.15347045323934 0 0 0
5124 8 12 -0.408983 66.27467560502215 83.2121136713847 70.71079442786967 0 0 1
5136 8 1 0.127443 63.03921161833813 86.32778942106123 70.41704866586777 0 0 1
4991 8 12 -0.410556 65.44946425277506 85.89876489893072 73.46492211458475 0 0 1
4981 8 4 -0.07844909999999999 68.24012594888354 86.61260182140757 76.10478797299281 0 0 1
4992 8 9 0.132847 66.10901872518382 85.2034964493608 73.31717769248692 0 0 1
5120 8 3 -0.0525414 67.20199826923074 85.39449259543545 70.41523146380749 0 0 1
4983 8 7 0.159418 68.97759746727813 85.77195582029161 76.08422081573572 0 0 1
4895 7 4 -0.08292049999999999 68.87506129168682 82.74803488163597 75.42173417869472 0 0 0
4893 7 10 0.13336 69.14665268212713 80.51782126924195 74.75947076353557 0 0 0
5118 8 9 0.142755 68.98808284387474 83.27704927323742 71.22276933741186 0 0 1
2722 4 12 -0.401645 69.50543133258708 80.83881309776275 71.76244436947454 0 0 1
2723 4 9 0.14103 70.13121690474526 81.5647247593863 71.65343011539093 0 0 1
4899 7 9 0.140051 69.04738602248354 82.59105742978467 73.62468972621035 0 0 0
4906 7 9 0.152729 72.23538996131825 81.13591456997115 74.11720836018371 0 0 0
4904 7 7 0.157748 70.94861001008543 82.72747369134643 73.72884576928959 0 0 0
4905 7 12 -0.394343 71.62165118003749 81.17478635966792 74.82435065535051 0 0 0
4902 7 4 -0.0693682 71.2577955643394 82.58854689342007 74.81064803248755 0 0 0
4908 7 3 -0.0444807 72.52207730150121 83.37110945688447 75.02820734156104 0 0 0
4910 7 1 0.142343 72.91770623549466 83.29541974561452 73.98234996726846 0 0 0
4907 7 10 0.139463 72.46721565467004 84.42745224783776 75.19165609877525 0 0 0
5109 8 7 0.152853 71.03107283207076 85.37486114541358 71.6006020700205 0 0 1
4901 7 3 -0.0507153 70.24213820733101 82.88209032055745 75.90909718411193 0 0 0
5110 8 12 -0.400114 70.46947896948086 85.48125842171939 73.53743224656166 0 0 1
5111 8 9 0.152084 69.93087163732655 84.71718019272855 73.51814104528835 0 0 1
5107 8 4 -0.08587980000000001 70.5283687889641 86.09036329750191 72.24030576900253 0 0 1
5113 8 3 -0.0493605 69.1299876899917 86.32764582320374 71.59017420072917 0 0 1
5103 8 12 -0.398929 73.45662382183694 86.29469782006286 72.67079807814743 0 0 1
5117 8 12 -0.399983 69.26466688199892 84.07927856893102 70.78974232523247 0 0 1
1052 2 12 -0.414864 74.33221379182474 81.79701797045932 72.47358375143006 0 0 1
1053 2 9 0.135974 74.4746182227029 80.8424127950734 72.57757789256534 0 0 1
1051 2 7 0.15179 74.2668786765 82.97978934942311 70.66880728325143 0 0 1
1055 2 3 -0.0534421 74.60707871754215 80.9949499952702 107.9631228106727 0 0 0
1049 2 4 -0.090499 74.8381674010351 82.1212179786777 71.18081475672473 0 0 1
5104 8 9 0.146901 73.09303717037795 85.45131523511337 72.9527283947127 0 0 1
5228 8 7 0.155153 74.75210722550084 86.40565247671977 70.3568984970101 0 0 1
4911 7 7 0.157801 73.8122505743087 81.76356203621346 75.70996920433858 0 0 0
4909 7 4 -0.0599428 73.51363205491091 82.75629512766355 76.05413386794301 0 0 0
4903 7 1 0.136406 70.42746067892914 83.99570198563116 76.18428356699891 0 0 0
4913 7 8 0.156948 74.39527909377975 83.4762691635511 75.95890738006334 0 0 0
1046 2 9 0.152719 75.06218135624218 83.09415551897091 73.49847722418515 0 0 1
5615 8 8 0.160243 76.80847677147256 80.36085477154457 76.09758499421973 0 0 0
1045 2 12 -0.403773 75.67286245407968 83.83351622756825 73.53256784634925 0 0 1
1044 2 7 0.154521 75.9925474012329 84.69938643849974 71.67548619978218 0 0 1
1048 2 3 -0.0598687 76.3049323349885 82.56910507342764 71.45472758202624 0 0 1
1042 2 4 -0.0833299 76.4277783232272 83.88692003938841 72.32495230422182 0 0 1
1043 2 1 0.132302 77.95097240889682 85.41222744619893 72.59819306380993 0 0 1
1037 2 7 0.157925 77.75477954609732 83.62384301846224 74.56991175871993 0 0 1
1035 2 4 -0.0745488 78.43467894081341 83.58024708511661 73.72005271534705 0 0 1
1041 2 3 -0.0496654 77.88562841369286 84.32384160301166 72.50716460453664 0 0 1
1040 2 10 0.129437 78.48878829375309 84.00412274573677 71.59153196926009 0 0 1
1047 2 10 0.12615 76.75830378483587 81.67229854540834 71.88389135914763 0 0 1
1038 2 12 -0.390836 78.6538671305653 82.20039853803866 73.42026554315498 0 0 1
1050 2 1 0.127761 76.98470616756143 82.64820107155879 70.53089942678959 0 0 1
1039 2 9 0.158159 77.74751019754748 81.89628231314535 73.19536339849286 0 0 1
1033 2 10 0.136381 79.58893139539298 85.24147528185344 74.46612461579157 0 0 1
1034 2 3 -0.0498851 79.797500087251 84.17552535364847 74.07632574436845 0 0 1
1036 2 1 0.140123 80.31639409770884 83.65063532734483 74.89437789833283 0 0 1
1030 2 7 0.152966 80.66500069847976 83.37935327061425 72.31921957344528 0 0 1
1028 2 4 -0.0770523 80.83071508470569 84.25386370979668 73.01448644587565 0 0 1
1031 2 12 -0.396851 80.81146499548689 85.4479338267569 72.28942851320191 0 0 1
1032 2 9 0.154577 81.12874408527534 85.24651299339816 71.4181002822604 0 0 1
1833 3 10 0.129789 75.3295358481766 86.44096193870362 75.52328618931948 0 0 0
5363 8 9 0.135025 80.85020568145272 81.67813955600717 70.87826235510268 0 0 1
1599 3 7 0.153128 87.07201157999685 80.10474812409409 75.8328279721963 0 0 0
1018 2 9 0.14767 85.58189801542066 80.49163147748826 73.63714980873 0 0 1
1614 3 12 -0.407289 82.0810297309787 81.07353668523105 76.2372867689358 0 0 0
1012 2 10 0.131549 82.89209670441484 80.59618515661474 73.70038969165753 0 0 1
1013 2 3 -0.0521039 83.21837594616689 80.61432397803452 72.65649901699103 0 0 1
1015 2 1 0.130932 82.24844662908573 81.04900517755733 72.22768420336033 0 0 1
1017 2 12 -0.404001 85.73167543042383 80.93087496235346 72.80529702052871 0 0 1
1014 2 4 -0.0834733 84.4349263514417 81.54448325338389 72.42391310963558 0 0 1
1016 2 7 0.154236 84.39302733738904 81.73556645165583 71.32256999104996 0 0 1
1019 2 10 0.128431 85.354477620174 83.53800443724396 72.73743877408458 0 0 1
1022 2 1 0.129236 84.46580283875929 82.99473970983499 74.17359400041894 0 0 1
1020 2 3 -0.0546894 84.47180659368831 82.99511208071338 73.04361730665299 0 0 1
1029 2 1 0.130032 82.20919453141222 82.93362469457497 73.97712334577155 0 0 1
1027 2 3 -0.0473342 82.20296623947588 83.97618938095299 73.67567715336591 0 0 1
1026 2 10 0.132851 82.55072314488879 84.75001189841542 74.44097637082564 0 0 1
1024 2 12 -0.409064 82.78013107974272 83.66890997043512 71.3001002995768 0 0 1
1021 2 4 -0.0872843 83.37537153629233 83.99437264330976 72.60787577509907 0 0 1
1023 2 7 0.146818 83.81283348062334 84.95735069807584 72.5248052189066 0 0 1
1608 3 9 0.143282 85.91331162168638 81.60074895482789 75.75694354853836 0 0 0
1025 2 9 0.134935 82.31800648131966 84.45032314161227 70.95322923388 0 0 1
629 1 7 0.155564 91.78651821574559 80.2441236599623 75.56394360297584 0 0 0
4743 7 7 0.151131 93.82957878654791 80.94088698605219 72.69725742266486 -1 0 0
2813 5 2 0.146021 88.652148380635 80.64569504736357 71.1917414341384 0 0 1
2812 5 1 0.15389 88.81789702845482 80.96165768210841 72.99382927403317 0 0 1
2810 5 3 -0.0441895 89.33618102963723 80.58159497087534 72.09398900537248 0 0 1
2811 5 4 -0.0516455 90.51606951776216 81.48582352423654 71.7751283960049 0 0 1
2814 5 7 0.166553 91.29024252271562 81.48023196414188 72.60519768939784 0 0 1
637 1 12 -0.404763 92.191785222735 82.6490335924165 74.28486638836786 0 0 0
634 1 4 -0.0773422 92.09226472076021 83.06344887326776 75.62566326853444 0 0 0
3067 5 12 -0.405565 92.35120061356317 85.33612264929553 71.24609474405916 0 0 1
642 1 1 0.133518 91.91104384808817 85.22188147618164 75.31057442046165 0 0 0
640 1 3 -0.0566724 92.5918615711009 84.48955314188542 75.8429617387988 0 0 0
646 1 10 0.139439 93.44574364521628 85.56097216121569 73.47901616629166 0 0 0
3069 5 10 0.127868 90.33682603008835 85.3218458078109 72.31483434192296 0 0 1
638 1 9 0.146754 91.43058630510964 83.11279809622891 73.81678149091888 0 0 0
2815 5 12 -0.388806 90.0021981246923 82.85320515356 71.70312199151154 0 0 1
3072 5 1 0.130756 89.81342215263541 85.513768548926 70.58973713691208 0 0 1
649 1 1 0.1381 93.89286879153435 83.84013514553794 73.33796256201487 0 0 0
2816 5 9 0.140748 90.77408389449405 83.3576067627563 71.4297233421732 0 0 1
636 1 7 0.158828 91.02904819189158 83.19899586107336 75.84519986177246 0 0 0
641 1 4 -0.0862912 94.08557976254357 84.71947981503213 75.42806271105235 0 0 0
3068 5 9 0.138805 92.30080288710283 84.95325193971247 70.40007859343014 0 0 1
3070 5 3 -0.0591831 90.20046995617335 86.0464137611437 71.42592740442265 0 0 1
647 1 3 -0.050438 94.1491302746999 84.79679303593409 73.89195237520778 0 0 0
3064 5 4 -0.0798585 91.63505035323456 86.56226452961596 71.14165041845712 0 0 1
627 1 4 -0.0806003 91.69107327365371 80.66373979602223 76.51504031404721 0 0 0
632 1 10 0.132866 93.5454702985642 81.58516117818697 76.34892262061021 0 0 0
2822 5 12 -0.401331 92.86208651236201 82.50125538753437 70.83783512251846 0 0 1
2823 5 9 0.138282 92.3752786265997 83.17504866538052 71.21816505179928 0 0 1
4745 7 9 0.152692 94.21508346974707 80.84773752820125 70.80098945140064 -1 0 0
4738 7 9 0.153718 98.11246939272112 81.54695166726731 71.6248523904562 -1 0 0
4737 7 12 -0.407147 97.7558979335177 80.72354936757698 71.84080709272182 -1 0 0
4730 7 12 -0.395453 100.23738310126129 82.39865080283629 74.94184890956694 -1 0 0
643 1 7 0.150156 94.45824648415245 85.67638759181114 75.93934319493036 0 0 0
4741 7 4 -0.08627650000000001 94.7644288918572 80.42351907185045 72.57151472396602 -1 0 0
4729 7 7 0.142828 99.94971125660328 80.86772881977959 73.61604745049664 -1 0 0
4727 7 4 -0.07555000000000001 99.38707660043374 81.32951097881981 74.46706366129347 -1 0 0
4731 7 9 0.146791 99.62976974459795 82.84318195014818 75.54145203226173 -1 0 0
645 1 9 0.131898 95.70607571009114 83.8165893213161 75.57543299705823 0 0 0
644 1 12 -0.404116 94.80504225938587 83.6360312350556 75.89051465296289 0 0 0
4734 7 4 -0.085038 97.25627583510473 80.79625298947668 73.1714361062842 -1 0 0
4742 7 1 0.132253 95.41413030640501 81.54865391975123 74.1790853372043 -1 0 0
4740 7 3 -0.0561964 95.8022416786415 81.35820510966332 73.12349050437929 -1 0 0
4733 7 3 -0.0541642 98.09007935486628 81.88926459702905 73.87336740883242 -1 0 0
4732 7 10 0.133925 98.51801919328167 82.6738250557681 73.1799615244383 -1 0 0
4739 7 10 0.129 95.83392535781167 82.29598565426791 72.47644949502417 -1 0 0
4735 7 1 0.135151 97.46188853158492 82.51366643727754 74.53874646886568 -1 0 0
651 1 12 -0.393041 96.54097951884152 84.78534120731287 74.1262722690801 0 0 0
650 1 7 0.161116 95.59049779260003 84.68145312307516 72.45405362496396 0 0 0
652 1 9 0.153692 96.55877597727157 83.83568662958974 74.04437386908282 0 0 0
648 1 4 -0.0765005 95.49732028510918 85.21255536455746 73.33623539057163 0 0 0
659 1 9 0.153563 98.08264352932437 86.51067003036508 71.15821621308874 0 0 0
658 1 12 -0.396425 97.11281890129953 86.4873205213627 71.31346455481135 0 0 0
4990 8 7 0.158941 65.13074235013991 86.67553973378241 75.3236560439185 0 0 1
4988 8 4 -0.0755078 65.92260398360547 86.68765229204112 74.5325531352762 0 0 1
4996 8 1 0.133089 66.33405292968311 88.79763928790005 74.95532871619608 0 0 1
4994 8 3 -0.0535156 66.1699110847371 88.12925273309104 74.0887081323485 0 0 1
4993 8 10 0.133587 67.11658843548602 88.29738366086431 73.50000706685839 0 0 1
4995 8 4 -0.0897299 65.01437613318117 88.55931110144995 73.28888234453171 0 0 1
5005 8 12 -0.412603 67.01529786703313 90.86217634256096 73.0291125700984 0 0 1
5002 8 4 -0.084874 65.64429945364131 91.13615793875604 72.88157939832632 0 0 1
4998 8 12 -0.400581 65.1306329574887 88.23434517892399 71.92193235036403 0 0 1
4997 8 7 0.149518 64.07020067461359 88.06189866591644 73.68408755913887 0 0 1
5001 8 3 -0.054933 64.75315231211658 90.04974264563143 73.52036349966599 0 0 1
5000 8 10 0.127703 64.74309404212265 90.24389419376182 74.62296502404226 0 0 1
4999 8 9 0.147289 66.03519079053929 88.58303633108937 71.72664932686413 0 0 1
5006 8 9 0.135448 67.13442937697808 90.02700129069132 72.58642472941109 0 0 1
5004 8 7 0.150912 65.46669677061395 91.1544060070744 71.84786954025223 0 0 1
5003 8 1 0.132879 63.68603361322161 90.23049308450072 73.2653459200245 0 0 1
5008 8 3 -0.0596789 65.35105565416849 92.58975312609657 73.38546822898907 0 0 1
5007 8 10 0.128366 65.08129646682922 92.61840443091818 74.41316306769258 0 0 1
4982 8 1 0.133492 68.69044598574139 88.38987652574107 75.00944424222396 0 0 1
4605 7 9 0.145218 67.52732327838827 92.8682348380542 76.05438188626 0 0 0
5195 8 9 0.154217 68.17244926188056 89.41571500325631 70.96447723623655 0 0 1
671 1 7 0.147162 62.694321699504535 90.55315704451057 70.84893839173618 1 0 0
5115 8 1 0.132004 68.58656988841436 87.01328532392127 72.2281555102497 0 0 1
5010 8 1 0.133446 64.46049164041051 92.94931616490128 72.98393598747441 0 0 1
5193 8 7 0.160305 68.29168195109924 91.52524244749291 70.51027332652846 0 0 1
4980 8 3 -0.0474307 69.15155747380732 87.79574179720926 75.82233387375462 0 0 1
5194 8 12 -0.38788 69.06394680855993 89.71564774889342 71.1490305196712 0 0 1
5112 8 10 0.133178 69.33818212008802 86.78280897280689 70.57822422493437 0 0 1
4979 8 10 0.130646 70.1157993865184 87.41268641610597 75.37759859193586 0 0 1
4971 8 9 0.145599 69.88712968840237 90.60226014012693 74.21869426906038 0 0 1
4969 8 7 0.155407 69.28452408931966 90.92230051701647 75.92139991510237 0 0 1
5102 8 7 0.14688 72.27090418005815 86.89004330419885 74.27563149165695 0 0 1
5189 8 10 0.134982 69.72026032392569 91.91340948512004 72.3533789511089 0 0 1
5100 8 4 -0.0880832 72.62084850099004 87.22930767151128 73.29192665812263 0 0 1
5106 8 3 -0.0423515 71.37427850212484 87.363084242602 72.4287187584602 0 0 1
5105 8 10 0.139891 71.55848179342034 87.78385563457739 71.45214074224847 0 0 1
5098 8 10 0.132607 72.75079079660084 89.34818343941386 73.78643867219873 0 0 1
5108 8 1 0.134547 70.76454245444364 88.16858789248087 72.82812066780164 0 0 1
5099 8 3 -0.0499582 73.36413430197192 88.53755382076415 73.42515333944255 0 0 1
4970 8 12 -0.405772 70.65931719243041 90.23653266603432 74.70474536657656 0 0 1
4967 8 4 -0.08094229999999999 70.36951389627549 90.66078967552922 75.99403561066252 0 0 1
4966 8 3 -0.0560879 71.21444938505641 91.84333553448545 76.26798436113971 0 0 1
5101 8 1 0.134996 74.06441992419425 88.44465344205125 74.31374680813948 0 0 1
5093 8 4 -0.077709 74.18831218633082 89.00336057151036 72.22522707034508 0 0 1
5192 8 1 0.13547 71.03505998664353 91.12167012839058 71.61994503950795 0 0 1
5190 8 3 -0.0476528 70.16022123197202 91.80038602809643 71.33173238431242 0 0 1
5096 8 12 -0.400678 73.31248051127767 89.58888874759981 71.25838391281249 0 0 1
5089 8 12 -0.397728 73.36647925677917 91.92143350374954 72.52338691700312 0 0 1
4968 8 1 0.129224 72.23843134335173 91.44397396018033 76.14090970410976 0 0 1
5090 8 9 0.14038 72.9241647822584 91.12069050576756 72.20293063712502 0 0 1
5088 8 7 0.154708 74.86585026546902 91.59788758759882 71.16926451963313 0 0 1
5086 8 4 -0.08140029999999999 74.7333130428444 91.52784066681542 72.27259272194622 0 0 1