LAMMPS (23 Jun 2022 - Update 1)
OMP_NUM_THREADS environment is not set. Defaulting to 1 thread. (src/comm.cpp:98)
  using 1 OpenMP thread(s) per MPI task
Loaded 1 plugins from C:\Users\HP\AppData\Local\LAMMPS 64-bit 23Jun2022\plugins
package omp 0
using multi-threaded neighbor list subroutines
package omp 4
set 4 OpenMP thread(s) per MPI task
using multi-threaded neighbor list subroutines
# Setup output
units			real
dimension		3
processors		* * *
boundary		p p p
atom_style		full
pair_style		lj/cut 10.0
bond_style		harmonic
angle_style 	harmonic
read_data		PVA4_equilibrated.data
Reading data file ...
  orthogonal box = (30.614546 29.037549 30.45605) to (59.769448 58.192451 59.610952)
  1 by 1 by 1 MPI processor grid
  reading atoms ...
  2808 atoms
  reading velocities ...
  2808 velocities
  scanning bonds ...
  3 = max bonds/atom
  scanning angles ...
  6 = max angles/atom
  reading bonds ...
  2804 bonds
  reading angles ...
  5200 angles
Finding 1-2 1-3 1-4 neighbors ...
  special bond factors lj:    0        0        0       
  special bond factors coul:  0        0        0       
     4 = max # of 1-2 neighbors
     7 = max # of 1-3 neighbors
    14 = max # of 1-4 neighbors
    18 = max # of special neighbors
  special bonds CPU = 0.004 seconds
  read_data CPU = 0.068 seconds

variable        nsteps index 100000   # length of run
variable        nthermo index  100    # thermo output interval
variable        T    equal 300         # Temperature in K

variable kb        equal 1.38065e-23
variable at2Pa     equal 101325
variable Myvol     equal "vol*10^-30"
variable kcalmol2J equal "4183.9954/(6.022e23)"
variable kbt       equal "v_kb*v_T"
variable Nat       equal atoms
variable Rhokbt    equal "v_kbt*v_Nat/v_Myvol"
variable C1        equal "v_kcalmol2J/v_Myvol"
variable C2        equal "v_Myvol/v_kbt"
variable Pa2GPa    equal 1e-9

# Stress fluctuation term F

compute stress all pressure NULL virial
variable s1 equal "-c_stress[1]*v_at2Pa"
variable s2 equal "-c_stress[2]*v_at2Pa"
variable s3 equal "-c_stress[3]*v_at2Pa"
variable s4 equal "-c_stress[6]*v_at2Pa"
variable s5 equal "-c_stress[5]*v_at2Pa"
variable s6 equal "-c_stress[4]*v_at2Pa"

variable s11 equal v_s1*v_s1
variable s22 equal v_s2*v_s2
variable s33 equal v_s3*v_s3
variable s44 equal v_s4*v_s4
variable s55 equal v_s5*v_s5
variable s66 equal v_s6*v_s6
variable s33 equal v_s3*v_s3
variable s12 equal v_s1*v_s2
variable s13 equal v_s1*v_s3
variable s14 equal v_s1*v_s4
variable s15 equal v_s1*v_s5
variable s16 equal v_s1*v_s6
variable s23 equal v_s2*v_s3
variable s24 equal v_s2*v_s4
variable s25 equal v_s2*v_s5
variable s26 equal v_s2*v_s6
variable s34 equal v_s3*v_s4
variable s35 equal v_s3*v_s5
variable s36 equal v_s3*v_s6
variable s45 equal v_s4*v_s5
variable s46 equal v_s4*v_s6
variable s56 equal v_s5*v_s6

variable mytemp equal temp
variable mypress equal press
variable mype equal pe/atoms

fix avs all ave/time 1 ${nthermo} ${nthermo} v_s1 v_s2 v_s3 v_s4 v_s5 v_s6 ave running
fix avs all ave/time 1 100 ${nthermo} v_s1 v_s2 v_s3 v_s4 v_s5 v_s6 ave running
fix avs all ave/time 1 100 100 v_s1 v_s2 v_s3 v_s4 v_s5 v_s6 ave running
fix avssq all ave/time 1 ${nthermo} ${nthermo} v_s11 v_s22 v_s33 v_s44 v_s55 v_s66 v_s12 v_s13 v_s14 v_s15 v_s16 v_s23 v_s24 v_s25 v_s26 v_s34 v_s35 v_s36 v_s45 v_s46 v_s56 ave running
fix avssq all ave/time 1 100 ${nthermo} v_s11 v_s22 v_s33 v_s44 v_s55 v_s66 v_s12 v_s13 v_s14 v_s15 v_s16 v_s23 v_s24 v_s25 v_s26 v_s34 v_s35 v_s36 v_s45 v_s46 v_s56 ave running
fix avssq all ave/time 1 100 100 v_s11 v_s22 v_s33 v_s44 v_s55 v_s66 v_s12 v_s13 v_s14 v_s15 v_s16 v_s23 v_s24 v_s25 v_s26 v_s34 v_s35 v_s36 v_s45 v_s46 v_s56 ave running

compute     born all born/matrix numdiff 1e-6 stress
fix 	    avborn all ave/time 1 ${nthermo} ${nthermo} c_born[*] ave running
fix 	    avborn all ave/time 1 100 ${nthermo} c_born[*] ave running
fix 	    avborn all ave/time 1 100 100 c_born[*] ave running

thermo      ${nthermo}
thermo      100
thermo_style    custom step temp press  c_born[1] f_avborn[1] c_born[12] f_avborn[12] c_born[4] f_avborn[4]
thermo_modify line multi

fix     1 all nvt temp $T $T 100
fix     1 all nvt temp 300 $T 100
fix     1 all nvt temp 300 300 100

run         ${nsteps}
run         100000
Generated 36 of 36 mixed pair_coeff terms from geometric mixing rule
Last active /omp style is angle_style harmonic/omp
Neighbor list info ...
  update every 1 steps, delay 10 steps, check yes
  max neighbors/atom: 2000, page size: 100000
  master list distance cutoff = 12
  ghost atom cutoff = 12
  binsize = 6, bins = 5 5 5
  1 neighbor lists, perpetual/occasional/extra = 1 0 0
  (1) pair lj/cut/omp, perpetual
      attributes: half, newton on, omp
      pair build: half/bin/newton/omp
      stencil: half/bin/3d
      bin: standard
Per MPI rank memory allocation (min/avg/max) = 26.06 | 26.06 | 26.06 Mbytes
------------ Step              0 ----- CPU =            0 (sec) -------------
Step     =              0 Temp     =       306.9257 Press    =       695.3552 
c_born[1] =    792368.9771 f_avborn[1] =         0.0000 c_born[12] =    165882.6503 
f_avborn[12] =         0.0000 c_born[4] =    321303.6612 f_avborn[4] =         0.0000
------------ Step            100 ----- CPU =       11.884 (sec) -------------
Step     =            100 Temp     =       300.2027 Press    =      -628.3042 
c_born[1] =    798196.8818 f_avborn[1] =    793447.8060 c_born[12] =    163422.1773 
f_avborn[12] =    165435.2416 c_born[4] =    318220.5216 f_avborn[4] =    320900.9301
------------ Step            200 ----- CPU =     23.57597 (sec) -------------
Step     =            200 Temp     =       298.1232 Press    =     -1512.5863 
c_born[1] =    790492.9830 f_avborn[1] =    794346.1814 c_born[12] =    165350.9960 
f_avborn[12] =    164920.2307 c_born[4] =    321005.0010 f_avborn[4] =    320342.4577
------------ Step            300 ----- CPU =     35.03315 (sec) -------------
Step     =            300 Temp     =       296.9015 Press    =       593.6482 
c_born[1] =    786208.2665 f_avborn[1] =    792897.7404 c_born[12] =    164277.6041 
f_avborn[12] =    165172.5865 c_born[4] =    320774.2732 f_avborn[4] =    320684.4404
------------ Step            400 ----- CPU =     47.40728 (sec) -------------
Step     =            400 Temp     =       297.9477 Press    =     -1673.4336 
c_born[1] =    796836.7435 f_avborn[1] =    791961.2514 c_born[12] =    161933.2416 
f_avborn[12] =    164883.6944 c_born[4] =    317109.0295 f_avborn[4] =    320502.5639
------------ Step            500 ----- CPU =     60.22873 (sec) -------------
Step     =            500 Temp     =       297.6716 Press    =      -335.1184 
c_born[1] =    792764.6414 f_avborn[1] =    793506.1934 c_born[12] =    158971.4145 
f_avborn[12] =    163962.8626 c_born[4] =    314950.6512 f_avborn[4] =    319461.1464
------------ Step            600 ----- CPU =     72.87408 (sec) -------------
Step     =            600 Temp     =       300.1539 Press    =     -1099.1192 
c_born[1] =    788453.5370 f_avborn[1] =    793493.0512 c_born[12] =    157969.9812 
f_avborn[12] =    163068.7936 c_born[4] =    314382.6191 f_avborn[4] =    318634.1889
------------ Step            700 ----- CPU =     87.67339 (sec) -------------
Step     =            700 Temp     =       305.2571 Press    =      -285.0362 
c_born[1] =    803359.1912 f_avborn[1] =    793935.6669 c_born[12] =    156177.3356 
f_avborn[12] =    162266.6162 c_born[4] =    311036.1533 f_avborn[4] =    317768.8019
------------ Step            800 ----- CPU =     99.47432 (sec) -------------
Step     =            800 Temp     =       293.5589 Press    =      -671.5266 
c_born[1] =    796795.0025 f_avborn[1] =    794666.7105 c_born[12] =    157720.8744 
f_avborn[12] =    161719.9680 c_born[4] =    312541.7552 f_avborn[4] =    317172.1770
------------ Step            900 ----- CPU =     111.0758 (sec) -------------
Step     =            900 Temp     =       299.3021 Press    =     -2018.4887 
c_born[1] =    787123.3067 f_avborn[1] =    794525.2496 c_born[12] =    160100.8515 
f_avborn[12] =    161556.5928 c_born[4] =    316582.4360 f_avborn[4] =    317048.4578
------------ Step           1000 ----- CPU =     122.6618 (sec) -------------
Step     =           1000 Temp     =       296.3706 Press    =      -440.2876 
c_born[1] =    788091.7881 f_avborn[1] =    793909.0767 c_born[12] =    164853.2570 
f_avborn[12] =    161650.6105 c_born[4] =    321776.6185 f_avborn[4] =    317223.2745
------------ Step           1100 ----- CPU =     134.0674 (sec) -------------
Step     =           1100 Temp     =       299.1048 Press    =       252.9147 
c_born[1] =    785868.4295 f_avborn[1] =    792980.2557 c_born[12] =    159696.5025 
f_avborn[12] =    161639.5658 c_born[4] =    316225.2347 f_avborn[4] =    317329.5971
------------ Step           1200 ----- CPU =     145.4209 (sec) -------------
Step     =           1200 Temp     =       305.3217 Press    =        30.7624 
c_born[1] =    796468.3126 f_avborn[1] =    792710.4387 c_born[12] =    155864.5538 
f_avborn[12] =    161354.4275 c_born[4] =    311087.0848 f_avborn[4] =    317059.2553
------------ Step           1300 ----- CPU =     156.7522 (sec) -------------
Step     =           1300 Temp     =       298.0993 Press    =     -2290.6665 
c_born[1] =    787302.2925 f_avborn[1] =    792809.3296 c_born[12] =    157037.4432 
f_avborn[12] =    160971.5682 c_born[4] =    314142.5930 f_avborn[4] =    316678.6707
------------ Step           1400 ----- CPU =      168.175 (sec) -------------
Step     =           1400 Temp     =       292.9423 Press    =      -820.0321 
c_born[1] =    793000.3263 f_avborn[1] =    792300.2052 c_born[12] =    158656.1028 
f_avborn[12] =    160747.6562 c_born[4] =    314102.0933 f_avborn[4] =    316528.1616
------------ Step           1500 ----- CPU =     179.4443 (sec) -------------
Step     =           1500 Temp     =       296.8261 Press    =      -574.3301 
c_born[1] =    786139.0911 f_avborn[1] =    792046.5937 c_born[12] =    159670.9102 
f_avborn[12] =    160615.2387 c_born[4] =    316139.7311 f_avborn[4] =    316403.4939
------------ Step           1600 ----- CPU =     190.7832 (sec) -------------
Step     =           1600 Temp     =       286.5273 Press    =      -453.3022 
c_born[1] =    787172.4814 f_avborn[1] =    791791.9396 c_born[12] =    161613.3524 
f_avborn[12] =    160538.5195 c_born[4] =    317191.7354 f_avborn[4] =    316305.1087
------------ Step           1700 ----- CPU =     202.0043 (sec) -------------
Step     =           1700 Temp     =       289.2970 Press    =      2004.6082 
c_born[1] =    795247.3395 f_avborn[1] =    791836.0566 c_born[12] =    162596.3398 
f_avborn[12] =    160657.0963 c_born[4] =    317685.9011 f_avborn[4] =    316391.7090
------------ Step           1800 ----- CPU =     213.2343 (sec) -------------
Step     =           1800 Temp     =       296.2298 Press    =      -302.9601 
c_born[1] =    798069.3544 f_avborn[1] =    791964.2115 c_born[12] =    160005.7129 
f_avborn[12] =    160712.9109 c_born[4] =    314166.6948 f_avborn[4] =    316403.4294
------------ Step           1900 ----- CPU =     224.5154 (sec) -------------
Step     =           1900 Temp     =       296.5189 Press    =       399.4033 
c_born[1] =    796013.5269 f_avborn[1] =    792019.8574 c_born[12] =    162226.4356 
f_avborn[12] =    160700.9963 c_born[4] =    318025.0312 f_avborn[4] =    316385.1927
------------ Step           2000 ----- CPU =     235.7612 (sec) -------------
Step     =           2000 Temp     =       306.0977 Press    =      2040.9536 
c_born[1] =    797821.0684 f_avborn[1] =    792134.7856 c_born[12] =    160344.2006 
f_avborn[12] =    160703.6161 c_born[4] =    315960.3317 f_avborn[4] =    316381.4856
------------ Step           2100 ----- CPU =     246.9172 (sec) -------------
Step     =           2100 Temp     =       303.9596 Press    =      -732.1200 
c_born[1] =    783411.4059 f_avborn[1] =    792047.2605 c_born[12] =    162402.9141 
f_avborn[12] =    160738.8956 c_born[4] =    317626.9866 f_avborn[4] =    316420.8588
------------ Step           2200 ----- CPU =      258.178 (sec) -------------
Step     =           2200 Temp     =       303.0346 Press    =     -1611.1407 
c_born[1] =    798431.4287 f_avborn[1] =    792118.4469 c_born[12] =    162356.6755 
f_avborn[12] =    160786.1550 c_born[4] =    316960.4089 f_avborn[4] =    316411.8317
------------ Step           2300 ----- CPU =     269.4201 (sec) -------------
Step     =           2300 Temp     =       293.5845 Press    =        97.1658 
c_born[1] =    791591.0203 f_avborn[1] =    792270.1362 c_born[12] =    163923.3512 
f_avborn[12] =    160768.1192 c_born[4] =    319305.5169 f_avborn[4] =    316372.9320
------------ Step           2400 ----- CPU =     280.6632 (sec) -------------
Step     =           2400 Temp     =       299.1885 Press    =      -242.9386 
c_born[1] =    799277.7547 f_avborn[1] =    792247.0833 c_born[12] =    160781.6292 
f_avborn[12] =    160849.6030 c_born[4] =    315299.3009 f_avborn[4] =    316440.5886
------------ Step           2500 ----- CPU =      291.855 (sec) -------------
Step     =           2500 Temp     =       301.4586 Press    =        33.2646 
c_born[1] =    792950.9966 f_avborn[1] =    792445.6373 c_born[12] =    163672.0972 
f_avborn[12] =    160878.4675 c_born[4] =    319484.3930 f_avborn[4] =    316435.7268
------------ Step           2600 ----- CPU =     303.0813 (sec) -------------
Step     =           2600 Temp     =       302.9422 Press    =      -690.3906 
c_born[1] =    790979.3918 f_avborn[1] =    792478.7600 c_born[12] =    160694.9266 
f_avborn[12] =    160864.5928 c_born[4] =    316201.2732 f_avborn[4] =    316417.6326
------------ Step           2700 ----- CPU =      314.354 (sec) -------------
Step     =           2700 Temp     =       296.1719 Press    =      -353.3376 
c_born[1] =    798718.0883 f_avborn[1] =    792451.4913 c_born[12] =    160726.3511 
f_avborn[12] =    160847.7097 c_born[4] =    315335.6666 f_avborn[4] =    316389.1653
------------ Step           2800 ----- CPU =     325.9648 (sec) -------------
Step     =           2800 Temp     =       300.1007 Press    =       743.4195 
c_born[1] =    791607.4688 f_avborn[1] =    792439.5915 c_born[12] =    161314.1229 
f_avborn[12] =    160861.6317 c_born[4] =    317081.9460 f_avborn[4] =    316392.0409
------------ Step           2900 ----- CPU =     337.3749 (sec) -------------
Step     =           2900 Temp     =       289.7924 Press    =      -227.9011 
c_born[1] =    789498.8393 f_avborn[1] =    792422.8522 c_born[12] =    162746.2254 
f_avborn[12] =    160886.4902 c_born[4] =    318396.6255 f_avborn[4] =    316411.0339
------------ Step           3000 ----- CPU =     351.4208 (sec) -------------
Step     =           3000 Temp     =       299.1725 Press    =      -167.3987 
c_born[1] =    794589.9531 f_avborn[1] =    792419.8457 c_born[12] =    161744.5835 
f_avborn[12] =    160923.6410 c_born[4] =    316195.6124 f_avborn[4] =    316426.0537
------------ Step           3100 ----- CPU =     362.3887 (sec) -------------
Step     =           3100 Temp     =       299.6091 Press    =     -1864.5008 
c_born[1] =    795113.5142 f_avborn[1] =    792705.7525 c_born[12] =    161977.6478 
f_avborn[12] =    160926.2699 c_born[4] =    316927.1259 f_avborn[4] =    316390.6651
------------ Step           3200 ----- CPU =     373.4123 (sec) -------------
Step     =           3200 Temp     =       300.0815 Press    =      1440.2781 
c_born[1] =    784318.4968 f_avborn[1] =    792594.9455 c_born[12] =    159973.3098 
f_avborn[12] =    160912.5809 c_born[4] =    316649.6277 f_avborn[4] =    316379.1814
------------ Step           3300 ----- CPU =     384.5414 (sec) -------------
Step     =           3300 Temp     =       297.8910 Press    =      -125.1903 
c_born[1] =    794838.7299 f_avborn[1] =    792635.8832 c_born[12] =    158016.1323 
f_avborn[12] =    160856.6109 c_born[4] =    313885.4073 f_avborn[4] =    316330.2286
------------ Step           3400 ----- CPU =     395.8597 (sec) -------------
Step     =           3400 Temp     =       297.9614 Press    =      1417.6535 
c_born[1] =    783394.3897 f_avborn[1] =    792597.3526 c_born[12] =    162177.1121 
f_avborn[12] =    160845.1576 c_born[4] =    317366.7571 f_avborn[4] =    316314.3620
------------ Step           3500 ----- CPU =     407.1096 (sec) -------------
Step     =           3500 Temp     =       299.4462 Press    =      1952.5265 
c_born[1] =    793425.4850 f_avborn[1] =    792500.4416 c_born[12] =    158163.5798 
f_avborn[12] =    160809.0651 c_born[4] =    313262.1879 f_avborn[4] =    316266.0014
------------ Step           3600 ----- CPU =     418.4323 (sec) -------------
Step     =           3600 Temp     =       311.8713 Press    =      1386.9552 
c_born[1] =    786142.6210 f_avborn[1] =    792534.2775 c_born[12] =    159244.3297 
f_avborn[12] =    160768.8397 c_born[4] =    315365.2412 f_avborn[4] =    316214.8814
------------ Step           3700 ----- CPU =     429.7442 (sec) -------------
Step     =           3700 Temp     =       304.9414 Press    =      2151.9802 
c_born[1] =    781445.4785 f_avborn[1] =    792404.4978 c_born[12] =    162083.6535 
f_avborn[12] =    160780.5155 c_born[4] =    318603.7319 f_avborn[4] =    316233.0590
------------ Step           3800 ----- CPU =     441.0635 (sec) -------------
Step     =           3800 Temp     =       296.7707 Press    =      -596.5698 
c_born[1] =    788997.6120 f_avborn[1] =    792209.0463 c_born[12] =    161963.3107 
f_avborn[12] =    160823.8543 c_born[4] =    317506.6786 f_avborn[4] =    316301.0158
------------ Step           3900 ----- CPU =     452.4579 (sec) -------------
Step     =           3900 Temp     =       301.6290 Press    =       483.1645 
c_born[1] =    782942.7923 f_avborn[1] =    792229.8326 c_born[12] =    161588.2958 
f_avborn[12] =    160822.6725 c_born[4] =    318195.2296 f_avborn[4] =    316292.4849
------------ Step           4000 ----- CPU =     463.8044 (sec) -------------
Step     =           4000 Temp     =       301.2870 Press    =      -258.3556 
c_born[1] =    797313.3417 f_avborn[1] =    792219.6187 c_born[12] =    161674.7992 
f_avborn[12] =    160838.0079 c_born[4] =    316066.1920 f_avborn[4] =    316308.3108
------------ Step           4100 ----- CPU =      475.185 (sec) -------------
Step     =           4100 Temp     =       305.2929 Press    =      -440.7575 
c_born[1] =    799944.8814 f_avborn[1] =    792367.9474 c_born[12] =    161303.7266 
f_avborn[12] =    160865.4004 c_born[4] =    316652.9230 f_avborn[4] =    316318.5117
------------ Step           4200 ----- CPU =     486.5563 (sec) -------------
Step     =           4200 Temp     =       307.6691 Press    =       274.5487 
c_born[1] =    787764.7530 f_avborn[1] =    792379.5913 c_born[12] =    163697.7866 
f_avborn[12] =    160937.5444 c_born[4] =    320281.8191 f_avborn[4] =    316402.2895
------------ Step           4300 ----- CPU =     497.9938 (sec) -------------
Step     =           4300 Temp     =       299.0433 Press    =       333.3451 
c_born[1] =    789891.4906 f_avborn[1] =    792450.8254 c_born[12] =    162645.8261 
f_avborn[12] =    160974.3111 c_born[4] =    318698.6658 f_avborn[4] =    316434.5739
------------ Step           4400 ----- CPU =     509.4096 (sec) -------------
Step     =           4400 Temp     =       300.8624 Press    =       595.4734 
c_born[1] =    794305.4703 f_avborn[1] =    792392.4951 c_born[12] =    159579.5665 
f_avborn[12] =    160967.2264 c_born[4] =    314149.8383 f_avborn[4] =    316431.4960
------------ Step           4500 ----- CPU =     520.8514 (sec) -------------
Step     =           4500 Temp     =       297.7870 Press    =      1991.9494 
c_born[1] =    793825.5265 f_avborn[1] =    792485.0771 c_born[12] =    162502.0066 
f_avborn[12] =    160955.0485 c_born[4] =    317845.6906 f_avborn[4] =    316417.2792
------------ Step           4600 ----- CPU =     532.2664 (sec) -------------
Step     =           4600 Temp     =       298.5455 Press    =      1705.6516 
c_born[1] =    796248.9577 f_avborn[1] =    792542.6158 c_born[12] =    161686.1656 
f_avborn[12] =    160969.6901 c_born[4] =    317205.2614 f_avborn[4] =    316429.7352
------------ Step           4700 ----- CPU =     543.6031 (sec) -------------
Step     =           4700 Temp     =       298.0826 Press    =      2374.3538 
c_born[1] =    793249.3999 f_avborn[1] =    792524.6104 c_born[12] =    159905.4611 
f_avborn[12] =    160997.5576 c_born[4] =    314497.2755 f_avborn[4] =    316457.7881
------------ Step           4800 ----- CPU =     555.0646 (sec) -------------
Step     =           4800 Temp     =       303.5132 Press    =      2700.8919 
c_born[1] =    794029.9277 f_avborn[1] =    792570.3735 c_born[12] =    161401.3958 
f_avborn[12] =    161026.6899 c_born[4] =    316177.5960 f_avborn[4] =    316472.5831
------------ Step           4900 ----- CPU =      566.434 (sec) -------------
Step     =           4900 Temp     =       305.5178 Press    =       135.9374 
c_born[1] =    800743.0273 f_avborn[1] =    792588.2875 c_born[12] =    159855.7703 
f_avborn[12] =    161014.8701 c_born[4] =    314817.2535 f_avborn[4] =    316455.6108
------------ Step           5000 ----- CPU =     577.7786 (sec) -------------
Step     =           5000 Temp     =       296.9120 Press    =       609.4684 
c_born[1] =    795261.0800 f_avborn[1] =    792730.6733 c_born[12] =    160967.3787 
f_avborn[12] =    161006.9629 c_born[4] =    316321.1225 f_avborn[4] =    316439.1629
------------ Step           5100 ----- CPU =     589.2292 (sec) -------------
Step     =           5100 Temp     =       295.1865 Press    =      1964.6820 
c_born[1] =    800497.1191 f_avborn[1] =    792712.5400 c_born[12] =    160197.9096 
f_avborn[12] =    160990.7767 c_born[4] =    314895.8442 f_avborn[4] =    316430.6219
------------ Step           5200 ----- CPU =     600.6041 (sec) -------------
Step     =           5200 Temp     =       299.8593 Press    =      1772.2248 
c_born[1] =    787568.2348 f_avborn[1] =    792687.7487 c_born[12] =    159184.5378 
f_avborn[12] =    160961.9072 c_born[4] =    315076.1969 f_avborn[4] =    316407.9416
------------ Step           5300 ----- CPU =     612.0649 (sec) -------------
Step     =           5300 Temp     =       305.3225 Press    =      2974.3500 
c_born[1] =    786910.3626 f_avborn[1] =    792533.2207 c_born[12] =    159412.7550 
f_avborn[12] =    160944.5136 c_born[4] =    315670.0820 f_avborn[4] =    316413.2413
------------ Step           5400 ----- CPU =     623.4096 (sec) -------------
Step     =           5400 Temp     =       305.0255 Press    =      1590.5974 
c_born[1] =    784162.4445 f_avborn[1] =    792441.6363 c_born[12] =    160595.7654 
f_avborn[12] =    160930.1001 c_born[4] =    316793.4772 f_avborn[4] =    316409.3909
------------ Step           5500 ----- CPU =     634.8732 (sec) -------------
Step     =           5500 Temp     =       301.3567 Press    =      -388.2300 
c_born[1] =    783525.3823 f_avborn[1] =    792377.2877 c_born[12] =    161807.5491 
f_avborn[12] =    160934.9571 c_born[4] =    317496.1721 f_avborn[4] =    316416.6727
------------ Step           5600 ----- CPU =     646.4046 (sec) -------------
Step     =           5600 Temp     =       303.9341 Press    =      2625.4474 
c_born[1] =    791626.6334 f_avborn[1] =    792421.2099 c_born[12] =    162331.2091 
f_avborn[12] =    160935.6798 c_born[4] =    317347.8809 f_avborn[4] =    316399.9756
------------ Step           5700 ----- CPU =     657.8813 (sec) -------------
Step     =           5700 Temp     =       297.7669 Press    =      2120.1894 
c_born[1] =    788666.1219 f_avborn[1] =    792337.6675 c_born[12] =    160083.7028 
f_avborn[12] =    160938.1015 c_born[4] =    315041.7777 f_avborn[4] =    316404.7156
------------ Step           5800 ----- CPU =     669.4162 (sec) -------------
Step     =           5800 Temp     =       296.4964 Press    =      2234.6390 
c_born[1] =    784192.2783 f_avborn[1] =    792341.0305 c_born[12] =    160342.0077 
f_avborn[12] =    160919.8075 c_born[4] =    317045.9471 f_avborn[4] =    316384.3184
------------ Step           5900 ----- CPU =      680.907 (sec) -------------
Step     =           5900 Temp     =       295.2174 Press    =       657.9082 
c_born[1] =    792061.2390 f_avborn[1] =    792422.4380 c_born[12] =    162092.3927 
f_avborn[12] =    160910.1759 c_born[4] =    317593.7270 f_avborn[4] =    316368.6709
------------ Step           6000 ----- CPU =     692.4756 (sec) -------------
Step     =           6000 Temp     =       291.9176 Press    =      1145.4078 
c_born[1] =    794253.7621 f_avborn[1] =    792380.1844 c_born[12] =    157954.3132 
f_avborn[12] =    160900.8681 c_born[4] =    312966.7139 f_avborn[4] =    316357.4324
------------ Step           6100 ----- CPU =     703.9394 (sec) -------------
Step     =           6100 Temp     =       301.6242 Press    =        52.0446 
c_born[1] =    793562.7058 f_avborn[1] =    792465.2090 c_born[12] =    158659.2418 
f_avborn[12] =    160861.9875 c_born[4] =    314208.3344 f_avborn[4] =    316306.4249
------------ Step           6200 ----- CPU =     715.5287 (sec) -------------
Step     =           6200 Temp     =       303.6314 Press    =      -226.4617 
c_born[1] =    801182.4651 f_avborn[1] =    792424.1570 c_born[12] =    158851.8220 
f_avborn[12] =    160848.0864 c_born[4] =    313920.2243 f_avborn[4] =    316300.6334
------------ Step           6300 ----- CPU =     727.0107 (sec) -------------
Step     =           6300 Temp     =       295.3920 Press    =       112.1303 
c_born[1] =    794214.4523 f_avborn[1] =    792528.5921 c_born[12] =    161729.1217 
f_avborn[12] =    160836.6293 c_born[4] =    316798.0675 f_avborn[4] =    316281.7606
------------ Step           6400 ----- CPU =     738.4811 (sec) -------------
Step     =           6400 Temp     =       295.3197 Press    =       487.3024 
c_born[1] =    797046.3052 f_avborn[1] =    792546.8058 c_born[12] =    161533.7403 
f_avborn[12] =    160838.2923 c_born[4] =    316853.9190 f_avborn[4] =    316287.2793
------------ Step           6500 ----- CPU =     749.9955 (sec) -------------
Step     =           6500 Temp     =       291.0130 Press    =      2081.2385 
c_born[1] =    805650.6735 f_avborn[1] =    792685.1084 c_born[12] =    158966.3146 
f_avborn[12] =    160840.2180 c_born[4] =    313844.0253 f_avborn[4] =    316282.1860
------------ Step           6600 ----- CPU =     761.4459 (sec) -------------
Step     =           6600 Temp     =       298.9431 Press    =       231.3542 
c_born[1] =    792123.3619 f_avborn[1] =    792792.1013 c_born[12] =    161188.5238 
f_avborn[12] =    160855.3085 c_born[4] =    317614.9455 f_avborn[4] =    316298.8346
------------ Step           6700 ----- CPU =     773.1254 (sec) -------------
Step     =           6700 Temp     =       309.8120 Press    =      1213.6580 
c_born[1] =    792093.9746 f_avborn[1] =    792771.9672 c_born[12] =    158233.8127 
f_avborn[12] =    160831.0678 c_born[4] =    314320.6591 f_avborn[4] =    316281.6790
------------ Step           6800 ----- CPU =     784.6296 (sec) -------------
Step     =           6800 Temp     =       300.8397 Press    =      -749.9444 
c_born[1] =    780842.6388 f_avborn[1] =    792756.4325 c_born[12] =    160823.7523 
f_avborn[12] =    160812.4854 c_born[4] =    317632.5265 f_avborn[4] =    316266.7322
------------ Step           6900 ----- CPU =     796.0914 (sec) -------------
Step     =           6900 Temp     =       300.9961 Press    =     -1438.7900 
c_born[1] =    788430.6000 f_avborn[1] =    792752.7441 c_born[12] =    158521.5647 
f_avborn[12] =    160805.2445 c_born[4] =    314599.5534 f_avborn[4] =    316260.1298
------------ Step           7000 ----- CPU =     807.5539 (sec) -------------
Step     =           7000 Temp     =       296.1994 Press    =      1205.2609 
c_born[1] =    791767.4794 f_avborn[1] =    792775.0593 c_born[12] =    158218.2750 
f_avborn[12] =    160764.6970 c_born[4] =    314847.8117 f_avborn[4] =    316224.5778
------------ Step           7100 ----- CPU =     818.8569 (sec) -------------
Step     =           7100 Temp     =       306.3132 Press    =      -154.1415 
c_born[1] =    794300.9094 f_avborn[1] =    792852.2669 c_born[12] =    160620.4430 
f_avborn[12] =    160747.6850 c_born[4] =    315793.0627 f_avborn[4] =    316204.4276
------------ Step           7200 ----- CPU =     830.4006 (sec) -------------
Step     =           7200 Temp     =       308.5385 Press    =       -80.0810 
c_born[1] =    805184.7858 f_avborn[1] =    792895.0089 c_born[12] =    159779.2151 
f_avborn[12] =    160741.2039 c_born[4] =    313817.1663 f_avborn[4] =    316190.8789
------------ Step           7300 ----- CPU =     841.9016 (sec) -------------
Step     =           7300 Temp     =       299.9953 Press    =      -679.9881 
c_born[1] =    790456.7870 f_avborn[1] =    792986.0929 c_born[12] =    160880.7031 
f_avborn[12] =    160731.1791 c_born[4] =    316640.2250 f_avborn[4] =    316176.2708
------------ Step           7400 ----- CPU =     853.3952 (sec) -------------
Step     =           7400 Temp     =       292.4919 Press    =        42.9133 
c_born[1] =    796012.3661 f_avborn[1] =    793038.5428 c_born[12] =    156045.6760 
f_avborn[12] =    160705.1364 c_born[4] =    311911.3476 f_avborn[4] =    316149.7621
------------ Step           7500 ----- CPU =     864.8678 (sec) -------------
Step     =           7500 Temp     =       297.7062 Press    =      -493.6564 
c_born[1] =    799382.0145 f_avborn[1] =    793110.7641 c_born[12] =    156995.2321 
f_avborn[12] =    160683.4153 c_born[4] =    312607.2229 f_avborn[4] =    316126.4794
------------ Step           7600 ----- CPU =     876.3174 (sec) -------------
Step     =           7600 Temp     =       302.6036 Press    =       -74.0455 
c_born[1] =    798218.0880 f_avborn[1] =    793181.9964 c_born[12] =    157666.5193 
f_avborn[12] =    160635.2466 c_born[4] =    313261.8364 f_avborn[4] =    316074.0807
------------ Step           7700 ----- CPU =     887.8689 (sec) -------------
Step     =           7700 Temp     =       306.0066 Press    =      1868.5057 
c_born[1] =    795556.1397 f_avborn[1] =    793185.7526 c_born[12] =    157472.3527 
f_avborn[12] =    160599.1904 c_born[4] =    313242.6390 f_avborn[4] =    316043.8302
------------ Step           7800 ----- CPU =     899.2289 (sec) -------------
Step     =           7800 Temp     =       306.4802 Press    =      1077.1031 
c_born[1] =    786421.8046 f_avborn[1] =    793098.3979 c_born[12] =    159865.8145 
f_avborn[12] =    160574.7040 c_born[4] =    316248.0234 f_avborn[4] =    316034.2693
------------ Step           7900 ----- CPU =     910.6523 (sec) -------------
Step     =           7900 Temp     =       297.7113 Press    =     -2062.3302 
c_born[1] =    785725.8746 f_avborn[1] =    793011.8460 c_born[12] =    161364.6568 
f_avborn[12] =    160567.4433 c_born[4] =    317237.6910 f_avborn[4] =    316032.1199
------------ Step           8000 ----- CPU =     922.1567 (sec) -------------
Step     =           8000 Temp     =       298.8385 Press    =      -297.2294 
c_born[1] =    784417.3235 f_avborn[1] =    793025.6333 c_born[12] =    157679.3258 
f_avborn[12] =    160544.9088 c_born[4] =    313834.6879 f_avborn[4] =    316010.1002
------------ Step           8100 ----- CPU =     933.7257 (sec) -------------
Step     =           8100 Temp     =       293.9885 Press    =     -1994.4423 
c_born[1] =    800321.8379 f_avborn[1] =    792928.2253 c_born[12] =    160400.9293 
f_avborn[12] =    160529.8310 c_born[4] =    315529.4792 f_avborn[4] =    316005.5904
------------ Step           8200 ----- CPU =     945.3955 (sec) -------------
Step     =           8200 Temp     =       299.6703 Press    =       477.6439 
c_born[1] =    790986.1355 f_avborn[1] =    792939.5332 c_born[12] =    160787.7549 
f_avborn[12] =    160532.7220 c_born[4] =    316518.4168 f_avborn[4] =    316011.5705
------------ Step           8300 ----- CPU =     956.8624 (sec) -------------
Step     =           8300 Temp     =       307.7847 Press    =      1947.5608 
c_born[1] =    791868.4187 f_avborn[1] =    792947.1923 c_born[12] =    160108.0087 
f_avborn[12] =    160531.7308 c_born[4] =    316804.8600 f_avborn[4] =    316016.1924
------------ Step           8400 ----- CPU =     968.4046 (sec) -------------
Step     =           8400 Temp     =       300.5171 Press    =      1145.9267 
c_born[1] =    796300.7901 f_avborn[1] =    792965.4431 c_born[12] =    160223.9819 
f_avborn[12] =    160525.1613 c_born[4] =    315190.9907 f_avborn[4] =    316014.3808
------------ Step           8500 ----- CPU =     979.9365 (sec) -------------
Step     =           8500 Temp     =       298.6247 Press    =      -731.0293 
c_born[1] =    786616.3296 f_avborn[1] =    792949.4248 c_born[12] =    162301.8979 
f_avborn[12] =    160541.0788 c_born[4] =    318063.0227 f_avborn[4] =    316029.6301
------------ Step           8600 ----- CPU =     991.7704 (sec) -------------
Step     =           8600 Temp     =       293.0091 Press    =       943.5545 
c_born[1] =    793221.4329 f_avborn[1] =    792935.4024 c_born[12] =    161379.4403 
f_avborn[12] =    160567.3593 c_born[4] =    317034.5896 f_avborn[4] =    316059.1262
------------ Step           8700 ----- CPU =     1003.334 (sec) -------------
Step     =           8700 Temp     =       303.4199 Press    =      1283.7599 
c_born[1] =    800195.5598 f_avborn[1] =    792968.4916 c_born[12] =    158956.7452 
f_avborn[12] =    160559.6352 c_born[4] =    313494.2077 f_avborn[4] =    316048.8511
------------ Step           8800 ----- CPU =     1014.829 (sec) -------------
Step     =           8800 Temp     =       304.2229 Press    =      1614.9854 
c_born[1] =    807462.3638 f_avborn[1] =    793058.6756 c_born[12] =    160418.9083 
f_avborn[12] =    160551.5068 c_born[4] =    313846.0293 f_avborn[4] =    316030.5379
------------ Step           8900 ----- CPU =      1026.35 (sec) -------------
Step     =           8900 Temp     =       302.4975 Press    =      1179.2406 
c_born[1] =    786589.3958 f_avborn[1] =    793081.4963 c_born[12] =    160029.6095 
f_avborn[12] =    160546.9401 c_born[4] =    315898.5209 f_avborn[4] =    316019.8291
------------ Step           9000 ----- CPU =     1037.826 (sec) -------------
Step     =           9000 Temp     =       295.0959 Press    =       708.6678 
c_born[1] =    795571.1238 f_avborn[1] =    793077.1028 c_born[12] =    159857.6809 
f_avborn[12] =    160538.5258 c_born[4] =    315948.6515 f_avborn[4] =    316012.4499
------------ Step           9100 ----- CPU =     1049.261 (sec) -------------
Step     =           9100 Temp     =       296.5424 Press    =      1108.0971 
c_born[1] =    790068.1796 f_avborn[1] =    793070.7945 c_born[12] =    160032.7702 
f_avborn[12] =    160537.3917 c_born[4] =    316425.8356 f_avborn[4] =    316016.0210
------------ Step           9200 ----- CPU =     1060.702 (sec) -------------
Step     =           9200 Temp     =       302.7286 Press    =     -1328.9547 
c_born[1] =    786643.2011 f_avborn[1] =    793013.3889 c_born[12] =    157598.2617 
f_avborn[12] =    160527.1705 c_born[4] =    313963.1226 f_avborn[4] =    316014.6167
------------ Step           9300 ----- CPU =     1072.244 (sec) -------------
Step     =           9300 Temp     =       302.5388 Press    =      1046.7697 
c_born[1] =    789744.1886 f_avborn[1] =    792988.1562 c_born[12] =    160323.4383 
f_avborn[12] =    160514.1378 c_born[4] =    316803.1239 f_avborn[4] =    316005.1136
------------ Step           9400 ----- CPU =     1083.808 (sec) -------------
Step     =           9400 Temp     =       296.7651 Press    =       579.2780 
c_born[1] =    790179.7040 f_avborn[1] =    792987.9762 c_born[12] =    163962.5560 
f_avborn[12] =    160518.6695 c_born[4] =    320005.3112 f_avborn[4] =    316012.7855
------------ Step           9500 ----- CPU =     1095.363 (sec) -------------
Step     =           9500 Temp     =       291.4365 Press    =      -768.7623 
c_born[1] =    796954.5402 f_avborn[1] =    793026.4874 c_born[12] =    160937.3120 
f_avborn[12] =    160534.1919 c_born[4] =    316226.5126 f_avborn[4] =    316022.3962
------------ Step           9600 ----- CPU =     1106.973 (sec) -------------
Step     =           9600 Temp     =       298.4026 Press    =        68.3364 
c_born[1] =    790635.0284 f_avborn[1] =    793052.3760 c_born[12] =    158518.4849 
f_avborn[12] =    160518.6374 c_born[4] =    314072.7956 f_avborn[4] =    316004.6385
------------ Step           9700 ----- CPU =     1118.459 (sec) -------------
Step     =           9700 Temp     =       300.1849 Press    =      -598.5572 
c_born[1] =    787898.5204 f_avborn[1] =    793008.1302 c_born[12] =    159210.1902 
f_avborn[12] =    160488.0029 c_born[4] =    314626.4649 f_avborn[4] =    315976.7300
------------ Step           9800 ----- CPU =     1130.041 (sec) -------------
Step     =           9800 Temp     =       299.5768 Press    =       684.0744 
c_born[1] =    790232.3752 f_avborn[1] =    792929.0789 c_born[12] =    158191.2104 
f_avborn[12] =    160466.1481 c_born[4] =    314056.2684 f_avborn[4] =    315960.2640
------------ Step           9900 ----- CPU =     1141.569 (sec) -------------
Step     =           9900 Temp     =       300.1906 Press    =      5274.1544 
c_born[1] =    786704.7510 f_avborn[1] =    792877.0626 c_born[12] =    159954.0089 
f_avborn[12] =    160465.5763 c_born[4] =    316219.4360 f_avborn[4] =    315968.3900
------------ Step          10000 ----- CPU =     1153.055 (sec) -------------
Step     =          10000 Temp     =       299.6816 Press    =      1500.7772 
c_born[1] =    784236.9636 f_avborn[1] =    792819.0190 c_born[12] =    162662.3025 
f_avborn[12] =    160471.9438 c_born[4] =    319115.9418 f_avborn[4] =    315984.2292
------------ Step          10100 ----- CPU =     1164.481 (sec) -------------
Step     =          10100 Temp     =       292.0089 Press    =      1686.3248 
c_born[1] =    790088.3453 f_avborn[1] =    792776.8527 c_born[12] =    156194.2793 
f_avborn[12] =    160462.0448 c_born[4] =    311924.6356 f_avborn[4] =    315976.1961
------------ Step          10200 ----- CPU =     1175.974 (sec) -------------
Step     =          10200 Temp     =       297.7641 Press    =      2854.9154 
c_born[1] =    810158.5272 f_avborn[1] =    792834.9263 c_born[12] =    162366.9041 
f_avborn[12] =    160463.5013 c_born[4] =    316485.4419 f_avborn[4] =    315968.8423
------------ Step          10300 ----- CPU =      1187.48 (sec) -------------
Step     =          10300 Temp     =       305.0948 Press    =      -986.1819 
c_born[1] =    795850.4096 f_avborn[1] =    792989.4408 c_born[12] =    160883.3288 
f_avborn[12] =    160466.2093 c_born[4] =    316272.6360 f_avborn[4] =    315957.4436
------------ Step          10400 ----- CPU =     1198.987 (sec) -------------
Step     =          10400 Temp     =       304.2589 Press    =     -1239.8458 
c_born[1] =    795293.0098 f_avborn[1] =    792976.3783 c_born[12] =    157232.6071 
f_avborn[12] =    160446.4921 c_born[4] =    312827.8288 f_avborn[4] =    315938.1620
------------ Step          10500 ----- CPU =     1210.546 (sec) -------------
Step     =          10500 Temp     =       301.8881 Press    =       673.4635 
c_born[1] =    792269.9772 f_avborn[1] =    792933.3851 c_born[12] =    156867.7879 
f_avborn[12] =    160421.6016 c_born[4] =    312645.9489 f_avborn[4] =    315919.4750
------------ Step          10600 ----- CPU =     1222.112 (sec) -------------
Step     =          10600 Temp     =       294.6339 Press    =      2167.3892 
c_born[1] =    789737.8461 f_avborn[1] =    792962.8970 c_born[12] =    155206.3212 
f_avborn[12] =    160382.8646 c_born[4] =    311416.5591 f_avborn[4] =    315882.9445
------------ Step          10700 ----- CPU =     1233.693 (sec) -------------
Step     =          10700 Temp     =       293.5244 Press    =       106.9675 
c_born[1] =    788529.8676 f_avborn[1] =    792964.8073 c_born[12] =    153571.9161 
f_avborn[12] =    160332.9761 c_born[4] =    309248.4945 f_avborn[4] =    315835.2689
------------ Step          10800 ----- CPU =      1245.23 (sec) -------------
Step     =          10800 Temp     =       301.9069 Press    =       896.0614 
c_born[1] =    783698.9917 f_avborn[1] =    792900.9082 c_born[12] =    154190.8662 
f_avborn[12] =    160287.4746 c_born[4] =    310618.2551 f_avborn[4] =    315796.0475
------------ Step          10900 ----- CPU =     1257.283 (sec) -------------
Step     =          10900 Temp     =       298.8841 Press    =       313.5650 
c_born[1] =    797225.1149 f_avborn[1] =    792871.6908 c_born[12] =    157552.4759 
f_avborn[12] =    160239.8166 c_born[4] =    312416.1689 f_avborn[4] =    315750.0761
------------ Step          11000 ----- CPU =     1268.826 (sec) -------------
Step     =          11000 Temp     =       305.2868 Press    =     -2203.3589 
c_born[1] =    783811.5185 f_avborn[1] =    792893.3621 c_born[12] =    159623.3520 
f_avborn[12] =    160199.6459 c_born[4] =    315864.6121 f_avborn[4] =    315705.2285
------------ Step          11100 ----- CPU =     1280.291 (sec) -------------
Step     =          11100 Temp     =       302.9375 Press    =      -684.9597 
c_born[1] =    786567.4532 f_avborn[1] =    792879.3271 c_born[12] =    157694.4422 
f_avborn[12] =    160177.7439 c_born[4] =    313371.3002 f_avborn[4] =    315681.6613
------------ Step          11200 ----- CPU =      1291.93 (sec) -------------
Step     =          11200 Temp     =       297.0411 Press    =      -824.3545 
c_born[1] =    777253.5944 f_avborn[1] =    792826.5391 c_born[12] =    157184.6221 
f_avborn[12] =    160166.3667 c_born[4] =    314150.7953 f_avborn[4] =    315674.7263
------------ Step          11300 ----- CPU =     1303.453 (sec) -------------
Step     =          11300 Temp     =       292.8000 Press    =     -1275.8403 
c_born[1] =    787783.5763 f_avborn[1] =    792747.4513 c_born[12] =    157571.5681 
f_avborn[12] =    160132.7011 c_born[4] =    312883.6089 f_avborn[4] =    315644.6492
------------ Step          11400 ----- CPU =     1314.958 (sec) -------------
Step     =          11400 Temp     =       294.1532 Press    =       173.7311 
c_born[1] =    782136.6073 f_avborn[1] =    792706.0698 c_born[12] =    160359.0042 
f_avborn[12] =    160119.9996 c_born[4] =    316940.1811 f_avborn[4] =    315630.3442
------------ Step          11500 ----- CPU =     1326.434 (sec) -------------
Step     =          11500 Temp     =       304.6113 Press    =       551.6703 
c_born[1] =    791833.2704 f_avborn[1] =    792662.2197 c_born[12] =    161289.4787 
f_avborn[12] =    160121.2484 c_born[4] =    316884.6189 f_avborn[4] =    315633.6701
------------ Step          11600 ----- CPU =     1337.954 (sec) -------------
Step     =          11600 Temp     =       303.0873 Press    =      -834.4190 
c_born[1] =    795913.2434 f_avborn[1] =    792657.7059 c_born[12] =    160094.9085 
f_avborn[12] =    160131.5823 c_born[4] =    315937.5698 f_avborn[4] =    315647.1281
------------ Step          11700 ----- CPU =     1349.448 (sec) -------------
Step     =          11700 Temp     =       300.1824 Press    =     -1789.3254 
c_born[1] =    794720.3235 f_avborn[1] =    792717.7097 c_born[12] =    160973.8102 
f_avborn[12] =    160118.6003 c_born[4] =    316457.4841 f_avborn[4] =    315630.4912
------------ Step          11800 ----- CPU =     1360.953 (sec) -------------
Step     =          11800 Temp     =       298.6087 Press    =      -205.8840 
c_born[1] =    794391.5939 f_avborn[1] =    792700.9525 c_born[12] =    160890.8707 
f_avborn[12] =    160130.8974 c_born[4] =    315829.6239 f_avborn[4] =    315644.5134
------------ Step          11900 ----- CPU =     1372.483 (sec) -------------
Step     =          11900 Temp     =       298.2941 Press    =      -659.8807 
c_born[1] =    796813.7182 f_avborn[1] =    792682.3235 c_born[12] =    158169.2894 
f_avborn[12] =    160128.9141 c_born[4] =    312822.0991 f_avborn[4] =    315644.7732
------------ Step          12000 ----- CPU =     1383.955 (sec) -------------
Step     =          12000 Temp     =       305.3086 Press    =       140.6460 
c_born[1] =    786892.8397 f_avborn[1] =    792670.8617 c_born[12] =    161878.5653 
f_avborn[12] =    160111.8002 c_born[4] =    317860.6705 f_avborn[4] =    315625.3540
------------ Step          12100 ----- CPU =     1395.393 (sec) -------------
Step     =          12100 Temp     =       303.8992 Press    =     -2376.5908 
c_born[1] =    788282.9362 f_avborn[1] =    792665.9142 c_born[12] =    158142.3563 
f_avborn[12] =    160108.1060 c_born[4] =    313783.3496 f_avborn[4] =    315622.5419
------------ Step          12200 ----- CPU =     1406.883 (sec) -------------
Step     =          12200 Temp     =       305.1069 Press    =       366.3688 
c_born[1] =    782548.2470 f_avborn[1] =    792623.0953 c_born[12] =    161136.1093 
f_avborn[12] =    160104.4763 c_born[4] =    317045.0520 f_avborn[4] =    315617.2648
------------ Step          12300 ----- CPU =     1418.341 (sec) -------------
Step     =          12300 Temp     =       303.4747 Press    =      2808.3513 
c_born[1] =    795949.3505 f_avborn[1] =    792665.9110 c_born[12] =    158676.0814 
f_avborn[12] =    160092.3042 c_born[4] =    313888.3515 f_avborn[4] =    315598.9247
------------ Step          12400 ----- CPU =     1429.897 (sec) -------------
Step     =          12400 Temp     =       296.0607 Press    =      1265.1676 
c_born[1] =    790074.4706 f_avborn[1] =    792698.7351 c_born[12] =    160803.0996 
f_avborn[12] =    160089.9418 c_born[4] =    316445.8189 f_avborn[4] =    315593.7086
------------ Step          12500 ----- CPU =     1441.362 (sec) -------------
Step     =          12500 Temp     =       302.6283 Press    =      1033.9873 
c_born[1] =    795877.1300 f_avborn[1] =    792680.3538 c_born[12] =    158946.1707 
f_avborn[12] =    160084.6993 c_born[4] =    313689.5409 f_avborn[4] =    315591.9522
------------ Step          12600 ----- CPU =     1452.805 (sec) -------------
Step     =          12600 Temp     =       304.1794 Press    =       158.3683 
c_born[1] =    785369.9600 f_avborn[1] =    792604.6394 c_born[12] =    154706.5583 
f_avborn[12] =    160076.7688 c_born[4] =    311004.4773 f_avborn[4] =    315586.9630
------------ Step          12700 ----- CPU =     1464.328 (sec) -------------
Step     =          12700 Temp     =       304.4440 Press    =      1103.4931 
c_born[1] =    787445.1899 f_avborn[1] =    792546.1636 c_born[12] =    158646.8397 
f_avborn[12] =    160054.5291 c_born[4] =    314619.8786 f_avborn[4] =    315570.0847
------------ Step          12800 ----- CPU =     1475.851 (sec) -------------
Step     =          12800 Temp     =       301.0492 Press    =      2927.4977 
c_born[1] =    800867.1653 f_avborn[1] =    792574.1580 c_born[12] =    157522.8351 
f_avborn[12] =    160042.6164 c_born[4] =    312857.6279 f_avborn[4] =    315557.5727
------------ Step          12900 ----- CPU =     1487.351 (sec) -------------
Step     =          12900 Temp     =       298.9256 Press    =       972.6419 
c_born[1] =    793811.2912 f_avborn[1] =    792623.4824 c_born[12] =    163525.1714 
f_avborn[12] =    160046.9304 c_born[4] =    318554.7839 f_avborn[4] =    315558.4086
------------ Step          13000 ----- CPU =     1498.874 (sec) -------------
Step     =          13000 Temp     =       297.9598 Press    =     -1274.5991 
c_born[1] =    792102.8881 f_avborn[1] =    792602.7856 c_born[12] =    158987.2019 
f_avborn[12] =    160048.1271 c_born[4] =    314727.2564 f_avborn[4] =    315560.1731
------------ Step          13100 ----- CPU =     1510.363 (sec) -------------
Step     =          13100 Temp     =       297.6515 Press    =     -1592.2992 
c_born[1] =    794677.4404 f_avborn[1] =    792605.9544 c_born[12] =    158017.2268 
f_avborn[12] =    160025.8791 c_born[4] =    313314.8613 f_avborn[4] =    315533.7522
------------ Step          13200 ----- CPU =     1521.855 (sec) -------------
Step     =          13200 Temp     =       301.5029 Press    =       -11.7124 
c_born[1] =    789598.0303 f_avborn[1] =    792578.9495 c_born[12] =    160273.4092 
f_avborn[12] =    160008.9704 c_born[4] =    315114.0482 f_avborn[4] =    315516.6341
------------ Step          13300 ----- CPU =     1533.453 (sec) -------------
Step     =          13300 Temp     =       298.8648 Press    =     -2005.8662 
c_born[1] =    799441.7209 f_avborn[1] =    792599.6685 c_born[12] =    156882.2183 
f_avborn[12] =    159994.4538 c_born[4] =    311108.3706 f_avborn[4] =    315495.1354
------------ Step          13400 ----- CPU =     1545.084 (sec) -------------
Step     =          13400 Temp     =       308.0752 Press    =       -89.2786 
c_born[1] =    790210.5290 f_avborn[1] =    792592.6518 c_born[12] =    159586.7727 
f_avborn[12] =    159994.2989 c_born[4] =    314349.9878 f_avborn[4] =    315489.9442
------------ Step          13500 ----- CPU =     1556.622 (sec) -------------
Step     =          13500 Temp     =       300.1142 Press    =       366.6268 
c_born[1] =    795915.0618 f_avborn[1] =    792605.9714 c_born[12] =    162270.3865 
f_avborn[12] =    160005.3625 c_born[4] =    317100.8970 f_avborn[4] =    315497.2373
------------ Step          13600 ----- CPU =     1568.215 (sec) -------------
Step     =          13600 Temp     =       302.5095 Press    =      -568.4683 
c_born[1] =    796756.4399 f_avborn[1] =    792603.7740 c_born[12] =    161870.2223 
f_avborn[12] =    160018.1580 c_born[4] =    316812.3650 f_avborn[4] =    315509.1854
------------ Step          13700 ----- CPU =     1579.676 (sec) -------------
Step     =          13700 Temp     =       299.3551 Press    =       444.0331 
c_born[1] =    797608.4104 f_avborn[1] =    792601.0024 c_born[12] =    162239.1899 
f_avborn[12] =    160031.8608 c_born[4] =    316151.0115 f_avborn[4] =    315516.8891
------------ Step          13800 ----- CPU =     1591.391 (sec) -------------
Step     =          13800 Temp     =       298.0009 Press    =      1734.6315 
c_born[1] =    782556.5223 f_avborn[1] =    792616.2861 c_born[12] =    163466.4726 
f_avborn[12] =    160045.7355 c_born[4] =    319060.7302 f_avborn[4] =    315525.4751
------------ Step          13900 ----- CPU =     1602.917 (sec) -------------
Step     =          13900 Temp     =       301.0449 Press    =       952.5300 
c_born[1] =    797377.3569 f_avborn[1] =    792612.3462 c_born[12] =    161619.0200 
f_avborn[12] =    160058.1707 c_born[4] =    316151.1176 f_avborn[4] =    315536.6298
------------ Step          14000 ----- CPU =     1614.517 (sec) -------------
Step     =          14000 Temp     =       302.2073 Press    =       -61.7477 
c_born[1] =    793343.2646 f_avborn[1] =    792664.3457 c_born[12] =    160567.8383 
f_avborn[12] =    160059.9627 c_born[4] =    316011.9126 f_avborn[4] =    315530.6085
------------ Step          14100 ----- CPU =     1626.074 (sec) -------------
Step     =          14100 Temp     =       304.4610 Press    =       261.1958 
c_born[1] =    797427.9600 f_avborn[1] =    792699.1753 c_born[12] =    153224.4499 
f_avborn[12] =    160034.9496 c_born[4] =    308124.1214 f_avborn[4] =    315501.2685
------------ Step          14200 ----- CPU =     1637.653 (sec) -------------
Step     =          14200 Temp     =       304.9622 Press    =      2989.7931 
c_born[1] =    796307.3160 f_avborn[1] =    792701.1058 c_born[12] =    156562.6182 
f_avborn[12] =    160003.3403 c_born[4] =    312526.4841 f_avborn[4] =    315472.1497
------------ Step          14300 ----- CPU =     1649.211 (sec) -------------
Step     =          14300 Temp     =       299.3797 Press    =      1905.6197 
c_born[1] =    792414.0008 f_avborn[1] =    792719.6817 c_born[12] =    159725.4369 
f_avborn[12] =    160000.4497 c_born[4] =    315553.3035 f_avborn[4] =    315473.0172
------------ Step          14400 ----- CPU =     1660.797 (sec) -------------
Step     =          14400 Temp     =       297.6472 Press    =       977.8544 
c_born[1] =    788427.9673 f_avborn[1] =    792703.3611 c_born[12] =    156768.3732 
f_avborn[12] =    159993.2117 c_born[4] =    312789.0538 f_avborn[4] =    315469.2525
------------ Step          14500 ----- CPU =     1672.679 (sec) -------------
Step     =          14500 Temp     =       302.1947 Press    =      1794.0588 
c_born[1] =    797607.4495 f_avborn[1] =    792656.8863 c_born[12] =    158264.3950 
f_avborn[12] =    159986.3997 c_born[4] =    313473.5015 f_avborn[4] =    315468.5338
------------ Step          14600 ----- CPU =     1684.277 (sec) -------------
Step     =          14600 Temp     =       307.2388 Press    =       252.4210 
c_born[1] =    800058.5508 f_avborn[1] =    792683.1910 c_born[12] =    156309.4023 
f_avborn[12] =    159974.4306 c_born[4] =    311526.2296 f_avborn[4] =    315456.2116
------------ Step          14700 ----- CPU =     1695.961 (sec) -------------
Step     =          14700 Temp     =       304.7698 Press    =      2089.0249 
c_born[1] =    790734.6632 f_avborn[1] =    792696.5374 c_born[12] =    160958.0170 
f_avborn[12] =    159965.5254 c_born[4] =    316737.2704 f_avborn[4] =    315449.5249
------------ Step          14800 ----- CPU =     1707.502 (sec) -------------
Step     =          14800 Temp     =       300.8247 Press    =      1249.8235 
c_born[1] =    791621.0123 f_avborn[1] =    792686.1988 c_born[12] =    163900.9351 
f_avborn[12] =    159993.0711 c_born[4] =    319806.3140 f_avborn[4] =    315479.3748
------------ Step          14900 ----- CPU =     1719.106 (sec) -------------
Step     =          14900 Temp     =       304.9201 Press    =      -466.9152 
c_born[1] =    786204.6283 f_avborn[1] =    792666.8452 c_born[12] =    162417.6451 
f_avborn[12] =    160024.8686 c_born[4] =    318927.5646 f_avborn[4] =    315515.1563
------------ Step          15000 ----- CPU =     1730.724 (sec) -------------
Step     =          15000 Temp     =       296.6304 Press    =       877.2478 
c_born[1] =    794050.6109 f_avborn[1] =    792654.7209 c_born[12] =    163588.4915 
f_avborn[12] =    160046.5394 c_born[4] =    319395.5451 f_avborn[4] =    315541.0590
------------ Step          15100 ----- CPU =      1742.16 (sec) -------------
Step     =          15100 Temp     =       295.6861 Press    =      2365.0413 
c_born[1] =    796069.9211 f_avborn[1] =    792671.8426 c_born[12] =    159943.9413 
f_avborn[12] =    160054.7392 c_born[4] =    315895.8727 f_avborn[4] =    315551.8116
------------ Step          15200 ----- CPU =     1753.651 (sec) -------------
Step     =          15200 Temp     =       302.0717 Press    =       908.9501 
c_born[1] =    794932.5626 f_avborn[1] =    792690.5227 c_born[12] =    158639.4616 
f_avborn[12] =    160044.7816 c_born[4] =    314178.9084 f_avborn[4] =    315544.8163
------------ Step          15300 ----- CPU =     1765.483 (sec) -------------
Step     =          15300 Temp     =       303.8223 Press    =       571.6035 
c_born[1] =    801420.4939 f_avborn[1] =    792718.2955 c_born[12] =    160865.9293 
f_avborn[12] =    160050.9311 c_born[4] =    315591.8489 f_avborn[4] =    315547.2855
------------ Step          15400 ----- CPU =     1781.016 (sec) -------------
Step     =          15400 Temp     =       302.6199 Press    =      1380.8453 
c_born[1] =    805748.4230 f_avborn[1] =    792734.8034 c_born[12] =    158500.2464 
f_avborn[12] =    160049.5239 c_born[4] =    312899.7317 f_avborn[4] =    315546.7462
------------ Step          15500 ----- CPU =     1794.634 (sec) -------------
Step     =          15500 Temp     =       297.0045 Press    =       779.8979 
c_born[1] =    793836.7908 f_avborn[1] =    792789.4719 c_born[12] =    160597.6968 
f_avborn[12] =    160050.1938 c_born[4] =    317064.5131 f_avborn[4] =    315546.0933
------------ Step          15600 ----- CPU =     1806.038 (sec) -------------
Step     =          15600 Temp     =       296.2861 Press    =       118.2794 
c_born[1] =    800569.8734 f_avborn[1] =    792817.9164 c_born[12] =    158109.2543 
f_avborn[12] =    160039.5385 c_born[4] =    313369.6849 f_avborn[4] =    315535.8192
------------ Step          15700 ----- CPU =      1817.49 (sec) -------------
Step     =          15700 Temp     =       294.0793 Press    =      1018.7438 
c_born[1] =    795165.1056 f_avborn[1] =    792857.5014 c_born[12] =    158155.2177 
f_avborn[12] =    160026.9084 c_born[4] =    314443.9045 f_avborn[4] =    315523.8226
------------ Step          15800 ----- CPU =     1828.911 (sec) -------------
Step     =          15800 Temp     =       297.9943 Press    =      1929.5666 
c_born[1] =    781897.8098 f_avborn[1] =    792830.7939 c_born[12] =    158031.4771 
f_avborn[12] =    160011.7765 c_born[4] =    313865.8449 f_avborn[4] =    315509.3633
------------ Step          15900 ----- CPU =     1840.436 (sec) -------------
Step     =          15900 Temp     =       306.8914 Press    =     -1047.3633 
c_born[1] =    791310.6986 f_avborn[1] =    792822.6457 c_born[12] =    157775.1616 
f_avborn[12] =    159998.3622 c_born[4] =    312902.0202 f_avborn[4] =    315492.8018
------------ Step          16000 ----- CPU =     1851.992 (sec) -------------
Step     =          16000 Temp     =       301.4895 Press    =      -103.8420 
c_born[1] =    785018.0190 f_avborn[1] =    792789.1476 c_born[12] =    163078.8843 
f_avborn[12] =    159992.8617 c_born[4] =    318761.1030 f_avborn[4] =    315487.5878
------------ Step          16100 ----- CPU =     1863.443 (sec) -------------
Step     =          16100 Temp     =       300.4461 Press    =      -215.7372 
c_born[1] =    788197.8243 f_avborn[1] =    792753.3469 c_born[12] =    160862.1070 
f_avborn[12] =    159998.7037 c_born[4] =    315994.0823 f_avborn[4] =    315494.2884
------------ Step          16200 ----- CPU =     1874.976 (sec) -------------
Step     =          16200 Temp     =       307.6111 Press    =      2729.1433 
c_born[1] =    787030.9846 f_avborn[1] =    792734.1656 c_born[12] =    161024.4278 
f_avborn[12] =    160010.1595 c_born[4] =    315777.6350 f_avborn[4] =    315503.0621
------------ Step          16300 ----- CPU =     1886.501 (sec) -------------
Step     =          16300 Temp     =       292.8068 Press    =      1812.6512 
c_born[1] =    779643.6783 f_avborn[1] =    792673.7020 c_born[12] =    160224.9657 
f_avborn[12] =    160020.9745 c_born[4] =    315830.9863 f_avborn[4] =    315515.5997
------------ Step          16400 ----- CPU =     1898.116 (sec) -------------
Step     =          16400 Temp     =       301.8580 Press    =       -80.6188 
c_born[1] =    780077.8211 f_avborn[1] =    792619.5134 c_born[12] =    160915.9214 
f_avborn[12] =    160026.3401 c_born[4] =    317029.2099 f_avborn[4] =    315521.3462
------------ Step          16500 ----- CPU =     1909.677 (sec) -------------
Step     =          16500 Temp     =       311.1020 Press    =      1682.2509 
c_born[1] =    780586.6365 f_avborn[1] =    792558.7481 c_born[12] =    164592.2099 
f_avborn[12] =    160043.8320 c_born[4] =    320000.4509 f_avborn[4] =    315541.8379
------------ Step          16600 ----- CPU =     1921.213 (sec) -------------
Step     =          16600 Temp     =       303.3462 Press    =      2512.3265 
c_born[1] =    779864.4011 f_avborn[1] =    792483.0281 c_born[12] =    162116.4703 
f_avborn[12] =    160066.0528 c_born[4] =    317683.2814 f_avborn[4] =    315567.7301
------------ Step          16700 ----- CPU =     1932.747 (sec) -------------
Step     =          16700 Temp     =       299.6761 Press    =       583.5189 
c_born[1] =    789940.5537 f_avborn[1] =    792454.1473 c_born[12] =    160705.8486 
f_avborn[12] =    160085.4834 c_born[4] =    316157.0276 f_avborn[4] =    315586.7951
------------ Step          16800 ----- CPU =     1944.277 (sec) -------------
Step     =          16800 Temp     =       303.0873 Press    =      1170.8634 
c_born[1] =    789033.0791 f_avborn[1] =    792438.1498 c_born[12] =    161334.1889 
f_avborn[12] =    160096.6307 c_born[4] =    317400.1108 f_avborn[4] =    315597.3070
------------ Step          16900 ----- CPU =     1955.883 (sec) -------------
Step     =          16900 Temp     =       293.6217 Press    =     -1571.7942 
c_born[1] =    790928.4233 f_avborn[1] =    792419.6526 c_born[12] =    162134.1723 
f_avborn[12] =    160103.9204 c_born[4] =    317930.6984 f_avborn[4] =    315606.1944
------------ Step          17000 ----- CPU =     1967.513 (sec) -------------
Step     =          17000 Temp     =       306.0815 Press    =      1782.5273 
c_born[1] =    787143.3472 f_avborn[1] =    792402.9697 c_born[12] =    162552.5345 
f_avborn[12] =    160127.0292 c_born[4] =    317218.3409 f_avborn[4] =    315629.4761
------------ Step          17100 ----- CPU =     1978.941 (sec) -------------
Step     =          17100 Temp     =       312.4668 Press    =      1074.9596 
c_born[1] =    788436.6297 f_avborn[1] =    792398.9327 c_born[12] =    164618.0963 
f_avborn[12] =    160145.8258 c_born[4] =    319816.1226 f_avborn[4] =    315646.6410
------------ Step          17200 ----- CPU =      1990.51 (sec) -------------
Step     =          17200 Temp     =       299.1412 Press    =     -1452.3966 
c_born[1] =    795143.1762 f_avborn[1] =    792415.2983 c_born[12] =    159153.5664 
f_avborn[12] =    160153.9186 c_born[4] =    314582.3299 f_avborn[4] =    315652.6459
------------ Step          17300 ----- CPU =     2002.092 (sec) -------------
Step     =          17300 Temp     =       301.3595 Press    =        14.3150 
c_born[1] =    785486.0261 f_avborn[1] =    792397.7100 c_born[12] =    160334.5838 
f_avborn[12] =    160146.7023 c_born[4] =    315950.6046 f_avborn[4] =    315647.5374
------------ Step          17400 ----- CPU =      2013.62 (sec) -------------
Step     =          17400 Temp     =       294.9347 Press    =       793.4547 
c_born[1] =    791327.8559 f_avborn[1] =    792377.2405 c_born[12] =    163464.8097 
f_avborn[12] =    160152.2682 c_born[4] =    318996.2596 f_avborn[4] =    315655.1613
------------ Step          17500 ----- CPU =     2025.167 (sec) -------------
Step     =          17500 Temp     =       302.7739 Press    =      2476.9642 
c_born[1] =    781562.5499 f_avborn[1] =    792342.5691 c_born[12] =    162612.1992 
f_avborn[12] =    160161.1045 c_born[4] =    319188.5543 f_avborn[4] =    315665.8386
------------ Step          17600 ----- CPU =     2036.799 (sec) -------------
Step     =          17600 Temp     =       300.6907 Press    =       534.3659 
c_born[1] =    793161.7739 f_avborn[1] =    792345.9383 c_born[12] =    158658.1138 
f_avborn[12] =    160167.4080 c_born[4] =    313904.1046 f_avborn[4] =    315670.0528
------------ Step          17700 ----- CPU =     2048.423 (sec) -------------
Step     =          17700 Temp     =       306.5510 Press    =      2265.8583 
c_born[1] =    790949.8055 f_avborn[1] =    792315.2021 c_born[12] =    158124.5980 
f_avborn[12] =    160159.8825 c_born[4] =    313844.6291 f_avborn[4] =    315666.7261
------------ Step          17800 ----- CPU =     2059.972 (sec) -------------
Step     =          17800 Temp     =       300.9327 Press    =      1018.1225 
c_born[1] =    784911.6888 f_avborn[1] =    792297.0593 c_born[12] =    162704.8325 
f_avborn[12] =    160163.8274 c_born[4] =    318453.6721 f_avborn[4] =    315671.2370
------------ Step          17900 ----- CPU =     2071.555 (sec) -------------
Step     =          17900 Temp     =       298.1589 Press    =      1494.8438 
c_born[1] =    787455.2560 f_avborn[1] =    792280.0394 c_born[12] =    162723.9575 
f_avborn[12] =    160175.2273 c_born[4] =    317471.0721 f_avborn[4] =    315681.3145
------------ Step          18000 ----- CPU =     2083.091 (sec) -------------
Step     =          18000 Temp     =       298.1993 Press    =      1302.6604 
c_born[1] =    790460.6597 f_avborn[1] =    792262.2543 c_born[12] =    160597.4956 
f_avborn[12] =    160184.8677 c_born[4] =    316455.4836 f_avborn[4] =    315690.4076
------------ Step          18100 ----- CPU =     2094.642 (sec) -------------
Step     =          18100 Temp     =       300.8458 Press    =      1038.4479 
c_born[1] =    789772.7895 f_avborn[1] =    792237.3710 c_born[12] =    159145.7772 
f_avborn[12] =    160186.2008 c_born[4] =    315127.4999 f_avborn[4] =    315694.4069
------------ Step          18200 ----- CPU =     2106.168 (sec) -------------
Step     =          18200 Temp     =       298.0700 Press    =       781.3276 
c_born[1] =    800427.7213 f_avborn[1] =    792254.2481 c_born[12] =    158544.9456 
f_avborn[12] =    160179.2516 c_born[4] =    313573.9913 f_avborn[4] =    315688.6093
------------ Step          18300 ----- CPU =     2117.802 (sec) -------------
Step     =          18300 Temp     =       293.8325 Press    =      1607.6223 
c_born[1] =    790986.8964 f_avborn[1] =    792246.3275 c_born[12] =    159475.7082 
f_avborn[12] =    160179.6282 c_born[4] =    315215.0668 f_avborn[4] =    315690.9253
------------ Step          18400 ----- CPU =     2129.415 (sec) -------------
Step     =          18400 Temp     =       298.8319 Press    =      2321.0335 
c_born[1] =    800974.2034 f_avborn[1] =    792244.4513 c_born[12] =    160370.9403 
f_avborn[12] =    160179.2981 c_born[4] =    315687.1677 f_avborn[4] =    315691.8939
------------ Step          18500 ----- CPU =     2141.044 (sec) -------------
Step     =          18500 Temp     =       301.2249 Press    =      2899.9858 
c_born[1] =    793022.5119 f_avborn[1] =    792245.1988 c_born[12] =    161009.3864 
f_avborn[12] =    160184.3335 c_born[4] =    317338.4020 f_avborn[4] =    315698.9397
------------ Step          18600 ----- CPU =      2153.26 (sec) -------------
Step     =          18600 Temp     =       301.2879 Press    =       602.4235 
c_born[1] =    792733.7444 f_avborn[1] =    792252.5399 c_born[12] =    160913.2219 
f_avborn[12] =    160196.7784 c_born[4] =    317100.0922 f_avborn[4] =    315714.3508
------------ Step          18700 ----- CPU =     2164.805 (sec) -------------
Step     =          18700 Temp     =       300.6225 Press    =     -1345.8800 
c_born[1] =    791277.7515 f_avborn[1] =    792275.8211 c_born[12] =    160942.1235 
f_avborn[12] =    160198.6580 c_born[4] =    317413.5151 f_avborn[4] =    315718.0491
------------ Step          18800 ----- CPU =     2176.406 (sec) -------------
Step     =          18800 Temp     =       293.1903 Press    =      -193.2232 
c_born[1] =    793565.0135 f_avborn[1] =    792285.8608 c_born[12] =    162720.3705 
f_avborn[12] =    160208.9797 c_born[4] =    319366.2026 f_avborn[4] =    315734.3791
------------ Step          18900 ----- CPU =     2188.034 (sec) -------------
Step     =          18900 Temp     =       301.7432 Press    =       773.3404 
c_born[1] =    801312.9119 f_avborn[1] =    792312.8142 c_born[12] =    160677.7329 
f_avborn[12] =    160218.9377 c_born[4] =    316173.9522 f_avborn[4] =    315746.7022
------------ Step          19000 ----- CPU =     2199.704 (sec) -------------
Step     =          19000 Temp     =       305.7296 Press    =       875.0378 
c_born[1] =    805313.0569 f_avborn[1] =    792365.8987 c_born[12] =    158320.2339 
f_avborn[12] =    160211.8397 c_born[4] =    313286.6559 f_avborn[4] =    315738.1303
------------ Step          19100 ----- CPU =     2211.261 (sec) -------------
Step     =          19100 Temp     =       303.7539 Press    =     -1449.1207 
c_born[1] =    805955.1923 f_avborn[1] =    792448.5269 c_born[12] =    160160.4922 
f_avborn[12] =    160211.5407 c_born[4] =    314847.3420 f_avborn[4] =    315733.5194
------------ Step          19200 ----- CPU =     2222.816 (sec) -------------
Step     =          19200 Temp     =       301.3585 Press    =       -33.3265 
c_born[1] =    789645.2691 f_avborn[1] =    792499.8251 c_born[12] =    160563.2003 
f_avborn[12] =    160204.4074 c_born[4] =    316641.4997 f_avborn[4] =    315723.2239
------------ Step          19300 ----- CPU =     2234.378 (sec) -------------
Step     =          19300 Temp     =       295.3887 Press    =     -1258.2781 
c_born[1] =    792004.0312 f_avborn[1] =    792485.6165 c_born[12] =    157772.7719 
f_avborn[12] =    160192.4886 c_born[4] =    313758.6226 f_avborn[4] =    315714.0160
------------ Step          19400 ----- CPU =     2246.014 (sec) -------------
Step     =          19400 Temp     =       292.1672 Press    =     -1722.1549 
c_born[1] =    803409.6630 f_avborn[1] =    792472.2203 c_born[12] =    156549.6310 
f_avborn[12] =    160178.8740 c_born[4] =    311576.7842 f_avborn[4] =    315705.6675
------------ Step          19500 ----- CPU =     2257.596 (sec) -------------
Step     =          19500 Temp     =       301.9508 Press    =      -195.5326 
c_born[1] =    789692.0143 f_avborn[1] =    792493.7967 c_born[12] =    160475.4790 
f_avborn[12] =    160169.4600 c_born[4] =    316511.1410 f_avborn[4] =    315696.7348
------------ Step          19600 ----- CPU =     2269.254 (sec) -------------
Step     =          19600 Temp     =       300.3287 Press    =      -155.1566 
c_born[1] =    803958.3638 f_avborn[1] =    792535.3746 c_born[12] =    161675.3909 
f_avborn[12] =    160173.3663 c_born[4] =    317041.7209 f_avborn[4] =    315699.6135
------------ Step          19700 ----- CPU =     2280.972 (sec) -------------
Step     =          19700 Temp     =       296.0553 Press    =        52.2927 
c_born[1] =    802285.4637 f_avborn[1] =    792581.8829 c_born[12] =    162063.0067 
f_avborn[12] =    160182.7633 c_born[4] =    317815.4521 f_avborn[4] =    315710.1081
------------ Step          19800 ----- CPU =     2292.537 (sec) -------------
Step     =          19800 Temp     =       297.6164 Press    =       140.5214 
c_born[1] =    798235.0867 f_avborn[1] =    792640.8231 c_born[12] =    159296.4632 
f_avborn[12] =    160178.0887 c_born[4] =    315203.4127 f_avborn[4] =    315705.5577
------------ Step          19900 ----- CPU =     2304.144 (sec) -------------
Step     =          19900 Temp     =       296.2668 Press    =      -440.1102 
c_born[1] =    799882.4429 f_avborn[1] =    792651.9855 c_born[12] =    155881.3870 
f_avborn[12] =    160164.2626 c_born[4] =    310989.9667 f_avborn[4] =    315694.3052
------------ Step          20000 ----- CPU =     2315.725 (sec) -------------
Step     =          20000 Temp     =       308.2722 Press    =       641.5373 
c_born[1] =    798076.0314 f_avborn[1] =    792692.2884 c_born[12] =    155549.2024 
f_avborn[12] =    160138.0302 c_born[4] =    310957.9298 f_avborn[4] =    315668.4333
------------ Step          20100 ----- CPU =     2327.322 (sec) -------------
Step     =          20100 Temp     =       292.5284 Press    =      1564.3804 
c_born[1] =    796073.6120 f_avborn[1] =    792720.1781 c_born[12] =    159968.5093 
f_avborn[12] =    160127.6683 c_born[4] =    315674.3548 f_avborn[4] =    315658.0333
------------ Step          20200 ----- CPU =     2338.835 (sec) -------------
Step     =          20200 Temp     =       297.0893 Press    =       -16.5491 
c_born[1] =    794839.3774 f_avborn[1] =    792724.6393 c_born[12] =    163258.2264 
f_avborn[12] =    160133.2351 c_born[4] =    318513.5876 f_avborn[4] =    315664.1933
------------ Step          20300 ----- CPU =      2350.42 (sec) -------------
Step     =          20300 Temp     =       295.0833 Press    =      2631.5966 
c_born[1] =    787721.5904 f_avborn[1] =    792711.4859 c_born[12] =    162342.1408 
f_avborn[12] =    160149.2541 c_born[4] =    318587.1697 f_avborn[4] =    315682.3779
------------ Step          20400 ----- CPU =     2362.037 (sec) -------------
Step     =          20400 Temp     =       302.8152 Press    =       910.9041 
c_born[1] =    791980.1974 f_avborn[1] =    792686.8707 c_born[12] =    160765.3311 
f_avborn[12] =    160151.3173 c_born[4] =    316226.3629 f_avborn[4] =    315686.9923
------------ Step          20500 ----- CPU =      2373.67 (sec) -------------
Step     =          20500 Temp     =       303.0945 Press    =      2093.0273 
c_born[1] =    787194.8314 f_avborn[1] =    792687.2888 c_born[12] =    159102.1861 
f_avborn[12] =    160151.3910 c_born[4] =    315517.0574 f_avborn[4] =    315685.8707
------------ Step          20600 ----- CPU =     2385.301 (sec) -------------
Step     =          20600 Temp     =       299.6765 Press    =      1350.2986 
c_born[1] =    786311.7023 f_avborn[1] =    792638.3095 c_born[12] =    158931.7794 
f_avborn[12] =    160146.0404 c_born[4] =    314597.9421 f_avborn[4] =    315686.6813
------------ Step          20700 ----- CPU =     2396.901 (sec) -------------
Step     =          20700 Temp     =       296.3943 Press    =      1418.4602 
c_born[1] =    786375.8953 f_avborn[1] =    792602.4757 c_born[12] =    160342.4105 
f_avborn[12] =    160147.1904 c_born[4] =    316620.8270 f_avborn[4] =    315693.9437
------------ Step          20800 ----- CPU =     2408.533 (sec) -------------
Step     =          20800 Temp     =       305.2362 Press    =      1435.1579 
c_born[1] =    795814.2604 f_avborn[1] =    792605.4358 c_born[12] =    163412.8213 
f_avborn[12] =    160156.8522 c_born[4] =    318921.6184 f_avborn[4] =    315703.8786
------------ Step          20900 ----- CPU =     2420.124 (sec) -------------
Step     =          20900 Temp     =       298.4378 Press    =      2016.8526 
c_born[1] =    794490.1837 f_avborn[1] =    792620.5322 c_born[12] =    160632.8167 
f_avborn[12] =    160168.9349 c_born[4] =    316945.2599 f_avborn[4] =    315717.0636
------------ Step          21000 ----- CPU =      2431.78 (sec) -------------
Step     =          21000 Temp     =       299.0420 Press    =      1278.9019 
c_born[1] =    791419.5325 f_avborn[1] =    792643.4438 c_born[12] =    161957.5385 
f_avborn[12] =    160171.2995 c_born[4] =    318816.9549 f_avborn[4] =    315722.4926
------------ Step          21100 ----- CPU =     2443.363 (sec) -------------
Step     =          21100 Temp     =       310.9845 Press    =       801.6847 
c_born[1] =    792855.5703 f_avborn[1] =    792650.3752 c_born[12] =    162361.2168 
f_avborn[12] =    160181.1337 c_born[4] =    318433.6193 f_avborn[4] =    315734.8382
------------ Step          21200 ----- CPU =     2454.968 (sec) -------------
Step     =          21200 Temp     =       310.4904 Press    =      1164.8274 
c_born[1] =    794549.0154 f_avborn[1] =    792658.3537 c_born[12] =    163162.3959 
f_avborn[12] =    160196.0272 c_born[4] =    318274.1551 f_avborn[4] =    315750.3207
------------ Step          21300 ----- CPU =       2466.6 (sec) -------------
Step     =          21300 Temp     =       306.5418 Press    =      1816.0500 
c_born[1] =    784373.1090 f_avborn[1] =    792661.3117 c_born[12] =    161230.6946 
f_avborn[12] =    160208.1924 c_born[4] =    317934.7509 f_avborn[4] =    315765.6297
------------ Step          21400 ----- CPU =     2478.183 (sec) -------------
Step     =          21400 Temp     =       299.5345 Press    =      2213.2208 
c_born[1] =    779747.0841 f_avborn[1] =    792643.5838 c_born[12] =    163041.4879 
f_avborn[12] =    160215.4471 c_born[4] =    320602.2259 f_avborn[4] =    315776.3825
------------ Step          21500 ----- CPU =     2489.895 (sec) -------------
Step     =          21500 Temp     =       296.7912 Press    =       201.1520 
c_born[1] =    785293.1956 f_avborn[1] =    792585.5722 c_born[12] =    157778.7508 
f_avborn[12] =    160215.1399 c_born[4] =    315150.1295 f_avborn[4] =    315782.7188
------------ Step          21600 ----- CPU =     2501.486 (sec) -------------
Step     =          21600 Temp     =       300.2938 Press    =     -2270.3988 
c_born[1] =    794083.7037 f_avborn[1] =    792572.8928 c_born[12] =    160974.6414 
f_avborn[12] =    160210.6308 c_born[4] =    315884.7605 f_avborn[4] =    315779.0894
------------ Step          21700 ----- CPU =      2513.08 (sec) -------------
Step     =          21700 Temp     =       295.6906 Press    =      1718.5309 
c_born[1] =    786965.0308 f_avborn[1] =    792582.8821 c_born[12] =    160881.6032 
f_avborn[12] =    160209.6918 c_born[4] =    316906.4959 f_avborn[4] =    315775.8535
------------ Step          21800 ----- CPU =     2524.738 (sec) -------------
Step     =          21800 Temp     =       293.5942 Press    =      -589.2868 
c_born[1] =    789586.7024 f_avborn[1] =    792554.8565 c_born[12] =    159913.1998 
f_avborn[12] =    160209.5827 c_born[4] =    314975.5478 f_avborn[4] =    315778.1927
------------ Step          21900 ----- CPU =     2536.354 (sec) -------------
Step     =          21900 Temp     =       300.0897 Press    =      -381.4947 
c_born[1] =    785811.5294 f_avborn[1] =    792543.4281 c_born[12] =    158014.8624 
f_avborn[12] =    160211.5956 c_born[4] =    314941.0277 f_avborn[4] =    315783.6453
------------ Step          22000 ----- CPU =     2548.045 (sec) -------------
Step     =          22000 Temp     =       302.7059 Press    =      1887.5148 
c_born[1] =    789223.1250 f_avborn[1] =    792522.6834 c_born[12] =    156671.7498 
f_avborn[12] =    160203.9471 c_born[4] =    312985.6682 f_avborn[4] =    315778.6624
------------ Step          22100 ----- CPU =     2559.636 (sec) -------------
Step     =          22100 Temp     =       301.0479 Press    =      1256.7293 
c_born[1] =    784649.9004 f_avborn[1] =    792515.5411 c_born[12] =    159830.4984 
f_avborn[12] =    160197.7839 c_born[4] =    317352.6664 f_avborn[4] =    315775.4427
------------ Step          22200 ----- CPU =     2571.506 (sec) -------------
Step     =          22200 Temp     =       297.3262 Press    =      1488.1310 
c_born[1] =    796907.9632 f_avborn[1] =    792501.7316 c_born[12] =    161621.6531 
f_avborn[12] =    160200.6506 c_born[4] =    317329.7131 f_avborn[4] =    315783.0294
------------ Step          22300 ----- CPU =     2583.126 (sec) -------------
Step     =          22300 Temp     =       299.8023 Press    =      -350.9402 
c_born[1] =    781967.8536 f_avborn[1] =    792517.1921 c_born[12] =    164274.9207 
f_avborn[12] =    160212.3466 c_born[4] =    321617.9587 f_avborn[4] =    315795.3615
------------ Step          22400 ----- CPU =     2594.743 (sec) -------------
Step     =          22400 Temp     =       290.9801 Press    =      -353.5705 
c_born[1] =    791849.6595 f_avborn[1] =    792495.2453 c_born[12] =    164060.9327 
f_avborn[12] =    160225.8827 c_born[4] =    319829.3002 f_avborn[4] =    315814.4056
------------ Step          22500 ----- CPU =     2606.366 (sec) -------------
Step     =          22500 Temp     =       292.2041 Press    =      1659.6197 
c_born[1] =    796647.5681 f_avborn[1] =    792506.0676 c_born[12] =    163961.4826 
f_avborn[12] =    160246.5688 c_born[4] =    319371.2119 f_avborn[4] =    315836.0729
------------ Step          22600 ----- CPU =     2617.991 (sec) -------------
Step     =          22600 Temp     =       296.4508 Press    =      1401.1421 
c_born[1] =    792418.7122 f_avborn[1] =    792537.3366 c_born[12] =    165636.4018 
f_avborn[12] =    160262.9062 c_born[4] =    321749.5427 f_avborn[4] =    315851.9900
------------ Step          22700 ----- CPU =     2629.626 (sec) -------------
Step     =          22700 Temp     =       302.6554 Press    =      -680.3478 
c_born[1] =    796102.4597 f_avborn[1] =    792522.4880 c_born[12] =    162635.6989 
f_avborn[12] =    160277.7012 c_born[4] =    317722.6008 f_avborn[4] =    315870.5463
------------ Step          22800 ----- CPU =     2641.153 (sec) -------------
Step     =          22800 Temp     =       297.6225 Press    =       908.7934 
c_born[1] =    794042.5011 f_avborn[1] =    792529.2764 c_born[12] =    163032.4384 
f_avborn[12] =    160290.1791 c_born[4] =    319021.0506 f_avborn[4] =    315883.5454
[...]
Step     =          96000 Temp     =       296.8468 Press    =      -220.2179 
c_born[1] =    795506.1881 f_avborn[1] =    794493.0656 c_born[12] =    160406.4894 
f_avborn[12] =    160556.6308 c_born[4] =    316059.1175 f_avborn[4] =    315695.7535
------------ Step          96100 ----- CPU =     11066.05 (sec) -------------
Step     =          96100 Temp     =       298.3390 Press    =      1513.4516 
c_born[1] =    788861.1881 f_avborn[1] =    794494.5339 c_born[12] =    158777.0657 
f_avborn[12] =    160554.9545 c_born[4] =    314697.9773 f_avborn[4] =    315694.3652
------------ Step          96200 ----- CPU =     11077.24 (sec) -------------
Step     =          96200 Temp     =       296.1916 Press    =       882.2337 
c_born[1] =    790565.1041 f_avborn[1] =    794491.9161 c_born[12] =    156737.1868 
f_avborn[12] =    160552.9264 c_born[4] =    312705.7982 f_avborn[4] =    315693.0300
------------ Step          96300 ----- CPU =     11088.51 (sec) -------------
Step     =          96300 Temp     =       297.3112 Press    =     -1064.1557 
c_born[1] =    803312.7331 f_avborn[1] =    794489.0476 c_born[12] =    159578.5262 
f_avborn[12] =    160549.8710 c_born[4] =    314239.7880 f_avborn[4] =    315690.7781
------------ Step          96400 ----- CPU =     11099.64 (sec) -------------
Step     =          96400 Temp     =       303.2251 Press    =        37.5202 
c_born[1] =    806048.4921 f_avborn[1] =    794492.5834 c_born[12] =    157822.8131 
f_avborn[12] =    160546.4182 c_born[4] =    312609.5564 f_avborn[4] =    315687.3559
------------ Step          96500 ----- CPU =     11110.79 (sec) -------------
Step     =          96500 Temp     =       302.1991 Press    =        33.6728 
c_born[1] =    783840.4536 f_avborn[1] =    794496.8175 c_born[12] =    160229.6086 
f_avborn[12] =    160545.3766 c_born[4] =    317109.2966 f_avborn[4] =    315686.5180
------------ Step          96600 ----- CPU =     11122.03 (sec) -------------
Step     =          96600 Temp     =       298.1920 Press    =      -714.2744 
c_born[1] =    798628.0413 f_avborn[1] =    794498.3991 c_born[12] =    160785.1189 
f_avborn[12] =    160547.2862 c_born[4] =    316048.3384 f_avborn[4] =    315689.1110
------------ Step          96700 ----- CPU =     11133.18 (sec) -------------
Step     =          96700 Temp     =       299.8999 Press    =      -112.2353 
c_born[1] =    797388.4214 f_avborn[1] =    794507.6138 c_born[12] =    160754.2660 
f_avborn[12] =    160546.1171 c_born[4] =    315834.4432 f_avborn[4] =    315687.7127
------------ Step          96800 ----- CPU =     11144.51 (sec) -------------
Step     =          96800 Temp     =       298.0522 Press    =       144.6020 
c_born[1] =    807849.3493 f_avborn[1] =    794513.1418 c_born[12] =    159101.2563 
f_avborn[12] =    160545.0269 c_born[4] =    313482.9968 f_avborn[4] =    315686.8580
------------ Step          96900 ----- CPU =     11155.71 (sec) -------------
Step     =          96900 Temp     =       304.8433 Press    =      -386.4483 
c_born[1] =    802691.2685 f_avborn[1] =    794526.4872 c_born[12] =    160743.4804 
f_avborn[12] =    160546.0558 c_born[4] =    316392.9787 f_avborn[4] =    315687.2521
------------ Step          97000 ----- CPU =     11166.89 (sec) -------------
Step     =          97000 Temp     =       295.4725 Press    =     -1017.6489 
c_born[1] =    801978.7830 f_avborn[1] =    794532.6723 c_born[12] =    159709.5343 
f_avborn[12] =    160545.0160 c_born[4] =    314817.2705 f_avborn[4] =    315686.3954
------------ Step          97100 ----- CPU =     11178.13 (sec) -------------
Step     =          97100 Temp     =       296.1360 Press    =     -1602.3919 
c_born[1] =    791959.8766 f_avborn[1] =    794534.1356 c_born[12] =    160664.9606 
f_avborn[12] =    160544.4451 c_born[4] =    316351.8876 f_avborn[4] =    315686.1612
------------ Step          97200 ----- CPU =     11189.84 (sec) -------------
Step     =          97200 Temp     =       302.4656 Press    =     -2595.0696 
c_born[1] =    804704.7475 f_avborn[1] =    794543.1312 c_born[12] =    158836.9455 
f_avborn[12] =    160543.6225 c_born[4] =    314093.9651 f_avborn[4] =    315684.8758
------------ Step          97300 ----- CPU =        11201 (sec) -------------
Step     =          97300 Temp     =       300.8367 Press    =      -158.9451 
c_born[1] =    805799.2243 f_avborn[1] =    794547.3363 c_born[12] =    159273.0923 
f_avborn[12] =    160543.2125 c_born[4] =    314484.4302 f_avborn[4] =    315685.1405
------------ Step          97400 ----- CPU =      11212.3 (sec) -------------
Step     =          97400 Temp     =       302.1647 Press    =      1434.1455 
c_born[1] =    798239.2316 f_avborn[1] =    794555.9294 c_born[12] =    161290.5681 
f_avborn[12] =    160542.2678 c_born[4] =    315983.5950 f_avborn[4] =    315683.9088
------------ Step          97500 ----- CPU =     11223.47 (sec) -------------
Step     =          97500 Temp     =       306.2023 Press    =      2192.0633 
c_born[1] =    786247.5989 f_avborn[1] =    794559.2276 c_born[12] =    164839.1281 
f_avborn[12] =    160544.1078 c_born[4] =    320986.3073 f_avborn[4] =    315685.1838
------------ Step          97600 ----- CPU =     11234.71 (sec) -------------
Step     =          97600 Temp     =       298.3252 Press    =       848.6585 
c_born[1] =    793508.8848 f_avborn[1] =    794558.0005 c_born[12] =    162003.4206 
f_avborn[12] =    160546.3463 c_born[4] =    317280.8234 f_avborn[4] =    315687.6226
------------ Step          97700 ----- CPU =     11245.93 (sec) -------------
Step     =          97700 Temp     =       297.3322 Press    =       532.1624 
c_born[1] =    793543.7666 f_avborn[1] =    794566.9094 c_born[12] =    162289.4015 
f_avborn[12] =    160547.3634 c_born[4] =    317135.3777 f_avborn[4] =    315687.5427
------------ Step          97800 ----- CPU =      11257.1 (sec) -------------
Step     =          97800 Temp     =       295.9668 Press    =       430.9729 
c_born[1] =    807733.6285 f_avborn[1] =    794573.3601 c_born[12] =    160745.4048 
f_avborn[12] =    160549.2183 c_born[4] =    315564.2506 f_avborn[4] =    315689.0381
------------ Step          97900 ----- CPU =     11268.36 (sec) -------------
Step     =          97900 Temp     =       299.4717 Press    =       297.4742 
c_born[1] =    801265.6263 f_avborn[1] =    794582.8150 c_born[12] =    159295.0390 
f_avborn[12] =    160548.4974 c_born[4] =    314667.8608 f_avborn[4] =    315688.0709
------------ Step          98000 ----- CPU =      11279.6 (sec) -------------
Step     =          98000 Temp     =       304.8902 Press    =      1079.9693 
c_born[1] =    791454.2895 f_avborn[1] =    794584.1857 c_born[12] =    159708.4019 
f_avborn[12] =    160547.6749 c_born[4] =    316074.3827 f_avborn[4] =    315688.2050
------------ Step          98100 ----- CPU =     11290.72 (sec) -------------
Step     =          98100 Temp     =       301.8655 Press    =       739.1369 
c_born[1] =    789809.9334 f_avborn[1] =    794585.6315 c_born[12] =    161390.2286 
f_avborn[12] =    160548.3989 c_born[4] =    318027.4805 f_avborn[4] =    315689.3131
------------ Step          98200 ----- CPU =     11301.87 (sec) -------------
Step     =          98200 Temp     =       304.7900 Press    =       607.8726 
c_born[1] =    778779.6915 f_avborn[1] =    794574.5392 c_born[12] =    162353.1497 
f_avborn[12] =    160550.6846 c_born[4] =    319190.4983 f_avborn[4] =    315692.7401
------------ Step          98300 ----- CPU =     11312.94 (sec) -------------
Step     =          98300 Temp     =       296.4554 Press    =      -407.6900 
c_born[1] =    797645.5930 f_avborn[1] =    794569.8605 c_born[12] =    161557.4696 
f_avborn[12] =    160551.1037 c_born[4] =    316672.1502 f_avborn[4] =    315693.6632
------------ Step          98400 ----- CPU =     11324.18 (sec) -------------
Step     =          98400 Temp     =       301.7578 Press    =        87.6085 
c_born[1] =    792291.6556 f_avborn[1] =    794572.5989 c_born[12] =    161377.8262 
f_avborn[12] =    160551.5685 c_born[4] =    317034.9228 f_avborn[4] =    315694.5629
------------ Step          98500 ----- CPU =     11335.33 (sec) -------------
Step     =          98500 Temp     =       297.9047 Press    =      1674.0860 
c_born[1] =    800978.5224 f_avborn[1] =    794576.0666 c_born[12] =    162685.1554 
f_avborn[12] =    160552.9913 c_born[4] =    318389.7748 f_avborn[4] =    315696.3516
------------ Step          98600 ----- CPU =     11346.84 (sec) -------------
Step     =          98600 Temp     =       300.0945 Press    =       860.7165 
c_born[1] =    804713.6602 f_avborn[1] =    794578.6476 c_born[12] =    161650.5546 
f_avborn[12] =    160554.6232 c_born[4] =    316291.1896 f_avborn[4] =    315698.7928
------------ Step          98700 ----- CPU =     11358.07 (sec) -------------
Step     =          98700 Temp     =       300.8845 Press    =      2128.9426 
c_born[1] =    798792.9955 f_avborn[1] =    794579.9983 c_born[12] =    160877.4107 
f_avborn[12] =    160554.4610 c_born[4] =    315622.2781 f_avborn[4] =    315699.1428
------------ Step          98800 ----- CPU =     11369.21 (sec) -------------
Step     =          98800 Temp     =       299.0571 Press    =      1649.1910 
c_born[1] =    788495.0157 f_avborn[1] =    794578.1518 c_born[12] =    163682.4325 
f_avborn[12] =    160554.8662 c_born[4] =    320204.7489 f_avborn[4] =    315700.5158
------------ Step          98900 ----- CPU =     11380.41 (sec) -------------
Step     =          98900 Temp     =       296.7572 Press    =      -167.3260 
c_born[1] =    795866.2255 f_avborn[1] =    794581.9862 c_born[12] =    158726.1666 
f_avborn[12] =    160554.8085 c_born[4] =    315222.5554 f_avborn[4] =    315701.4252
------------ Step          99000 ----- CPU =     11391.64 (sec) -------------
Step     =          99000 Temp     =       300.8903 Press    =      -458.8518 
c_born[1] =    795097.4727 f_avborn[1] =    794577.9385 c_born[12] =    159543.9368 
f_avborn[12] =    160555.0332 c_born[4] =    315096.4057 f_avborn[4] =    315702.9565
------------ Step          99100 ----- CPU =     11402.76 (sec) -------------
Step     =          99100 Temp     =       302.5296 Press    =      -421.0859 
c_born[1] =    792415.2167 f_avborn[1] =    794578.4383 c_born[12] =    161305.2640 
f_avborn[12] =    160556.0555 c_born[4] =    316900.5098 f_avborn[4] =    315704.4688
------------ Step          99200 ----- CPU =        11414 (sec) -------------
Step     =          99200 Temp     =       304.6338 Press    =      -490.4664 
c_born[1] =    788972.6814 f_avborn[1] =    794576.7303 c_born[12] =    164020.9946 
f_avborn[12] =    160557.4919 c_born[4] =    319859.9438 f_avborn[4] =    315706.3285
------------ Step          99300 ----- CPU =     11425.17 (sec) -------------
Step     =          99300 Temp     =       290.8710 Press    =     -1106.0532 
c_born[1] =    791258.3547 f_avborn[1] =    794572.0535 c_born[12] =    161817.1895 
f_avborn[12] =    160560.4499 c_born[4] =    318128.4041 f_avborn[4] =    315710.5754
------------ Step          99400 ----- CPU =     11436.41 (sec) -------------
Step     =          99400 Temp     =       304.5195 Press    =      1404.3055 
c_born[1] =    788817.9977 f_avborn[1] =    794573.8972 c_born[12] =    161153.8419 
f_avborn[12] =    160560.9435 c_born[4] =    317326.4847 f_avborn[4] =    315711.4164
------------ Step          99500 ----- CPU =     11447.64 (sec) -------------
Step     =          99500 Temp     =       296.9436 Press    =     -1592.5083 
c_born[1] =    798258.1269 f_avborn[1] =    794572.0631 c_born[12] =    160659.3282 
f_avborn[12] =    160560.5428 c_born[4] =    315928.8812 f_avborn[4] =    315711.9038
------------ Step          99600 ----- CPU =     11458.84 (sec) -------------
Step     =          99600 Temp     =       306.3978 Press    =      1150.4110 
c_born[1] =    795417.6564 f_avborn[1] =    794575.7359 c_born[12] =    161539.4832 
f_avborn[12] =    160560.4775 c_born[4] =    318075.7094 f_avborn[4] =    315712.2153
------------ Step          99700 ----- CPU =     11470.18 (sec) -------------
Step     =          99700 Temp     =       310.5894 Press    =       546.8470 
c_born[1] =    790545.6215 f_avborn[1] =    794580.9120 c_born[12] =    162870.7529 
f_avborn[12] =    160561.5359 c_born[4] =    319019.4424 f_avborn[4] =    315713.8094
------------ Step          99800 ----- CPU =     11481.45 (sec) -------------
Step     =          99800 Temp     =       306.2143 Press    =        34.5559 
c_born[1] =    792612.3268 f_avborn[1] =    794580.2670 c_born[12] =    159962.4554 
f_avborn[12] =    160562.4285 c_born[4] =    316162.0366 f_avborn[4] =    315715.2971
------------ Step          99900 ----- CPU =      11492.7 (sec) -------------
Step     =          99900 Temp     =       301.8401 Press    =      -747.0926 
c_born[1] =    788449.2207 f_avborn[1] =    794578.9061 c_born[12] =    162122.3274 
f_avborn[12] =    160564.4316 c_born[4] =    318783.3082 f_avborn[4] =    315717.9043
------------ Step         100000 ----- CPU =     11503.99 (sec) -------------
Step     =         100000 Temp     =       294.6907 Press    =        66.9683 
c_born[1] =    798857.1006 f_avborn[1] =    794580.0769 c_born[12] =    162366.8971 
f_avborn[12] =    160565.8214 c_born[4] =    317588.7364 f_avborn[4] =    315719.4379
Loop time of 11504 on 4 procs for 100000 steps with 2808 atoms

Performance: 0.751 ns/day, 31.956 hours/ns, 8.693 timesteps/s
298.1% CPU use with 1 MPI tasks x 4 OpenMP threads

MPI task timing breakdown:
Section |  min time  |  avg time  |  max time  |%varavg| %total
---------------------------------------------------------------
Pair    | 366.1      | 366.1      | 366.1      |   0.0 |  3.18
Bond    | 31.763     | 31.763     | 31.763     |   0.0 |  0.28
Neigh   | 62.131     | 62.131     | 62.131     |   0.0 |  0.54
Comm    | 10.967     | 10.967     | 10.967     |   0.0 |  0.10
Output  | 108.53     | 108.53     | 108.53     |   0.0 |  0.94
Modify  | 10923      | 10923      | 10923      |   0.0 | 94.95
Other   |            | 1.215      |            |       |  0.01

Nlocal:           2808 ave        2808 max        2808 min
Histogram: 1 0 0 0 0 0 0 0 0 0
Nghost:          14216 ave       14216 max       14216 min
Histogram: 1 0 0 0 0 0 0 0 0 0
Neighs:    1.13576e+06 ave 1.13576e+06 max 1.13576e+06 min
Histogram: 1 0 0 0 0 0 0 0 0 0

Total # of neighbors = 1135755
Ave neighs/atom = 404.47115
Ave special neighs/atom = 11.65812
Neighbor list builds = 4846
Dangerous builds = 0

# atm to GPa
variable ffac equal ${C2}
variable ffac equal 5.9831507640225e-06

variable F11 equal -(f_avssq[1]-f_avs[1]*f_avs[1])*${ffac}
variable F11 equal -(f_avssq[1]-f_avs[1]*f_avs[1])*5.9831507640225e-06
variable F22 equal -(f_avssq[2]-f_avs[2]*f_avs[2])*${ffac}
variable F22 equal -(f_avssq[2]-f_avs[2]*f_avs[2])*5.9831507640225e-06
variable F33 equal -(f_avssq[3]-f_avs[3]*f_avs[3])*${ffac}
variable F33 equal -(f_avssq[3]-f_avs[3]*f_avs[3])*5.9831507640225e-06
variable F44 equal -(f_avssq[4]-f_avs[4]*f_avs[4])*${ffac}
variable F44 equal -(f_avssq[4]-f_avs[4]*f_avs[4])*5.9831507640225e-06
variable F55 equal -(f_avssq[5]-f_avs[5]*f_avs[5])*${ffac}
variable F55 equal -(f_avssq[5]-f_avs[5]*f_avs[5])*5.9831507640225e-06
variable F66 equal -(f_avssq[6]-f_avs[6]*f_avs[6])*${ffac}
variable F66 equal -(f_avssq[6]-f_avs[6]*f_avs[6])*5.9831507640225e-06

variable F12 equal -(f_avssq[7]-f_avs[1]*f_avs[2])*${ffac}
variable F12 equal -(f_avssq[7]-f_avs[1]*f_avs[2])*5.9831507640225e-06
variable F13 equal -(f_avssq[8]-f_avs[1]*f_avs[3])*${ffac}
variable F13 equal -(f_avssq[8]-f_avs[1]*f_avs[3])*5.9831507640225e-06
variable F14 equal -(f_avssq[9]-f_avs[1]*f_avs[4])*${ffac}
variable F14 equal -(f_avssq[9]-f_avs[1]*f_avs[4])*5.9831507640225e-06
variable F15 equal -(f_avssq[10]-f_avs[1]*f_avs[5])*${ffac}
variable F15 equal -(f_avssq[10]-f_avs[1]*f_avs[5])*5.9831507640225e-06
variable F16 equal -(f_avssq[11]-f_avs[1]*f_avs[6])*${ffac}
variable F16 equal -(f_avssq[11]-f_avs[1]*f_avs[6])*5.9831507640225e-06

variable F23 equal -(f_avssq[12]-f_avs[2]*f_avs[3])*${ffac}
variable F23 equal -(f_avssq[12]-f_avs[2]*f_avs[3])*5.9831507640225e-06
variable F24 equal -(f_avssq[13]-f_avs[2]*f_avs[4])*${ffac}
variable F24 equal -(f_avssq[13]-f_avs[2]*f_avs[4])*5.9831507640225e-06
variable F25 equal -(f_avssq[14]-f_avs[2]*f_avs[5])*${ffac}
variable F25 equal -(f_avssq[14]-f_avs[2]*f_avs[5])*5.9831507640225e-06
variable F26 equal -(f_avssq[15]-f_avs[2]*f_avs[6])*${ffac}
variable F26 equal -(f_avssq[15]-f_avs[2]*f_avs[6])*5.9831507640225e-06

variable F34 equal -(f_avssq[16]-f_avs[3]*f_avs[4])*${ffac}
variable F34 equal -(f_avssq[16]-f_avs[3]*f_avs[4])*5.9831507640225e-06
variable F35 equal -(f_avssq[17]-f_avs[3]*f_avs[5])*${ffac}
variable F35 equal -(f_avssq[17]-f_avs[3]*f_avs[5])*5.9831507640225e-06
variable F36 equal -(f_avssq[18]-f_avs[3]*f_avs[6])*${ffac}
variable F36 equal -(f_avssq[18]-f_avs[3]*f_avs[6])*5.9831507640225e-06

variable F45 equal -(f_avssq[19]-f_avs[4]*f_avs[5])*${ffac}
variable F45 equal -(f_avssq[19]-f_avs[4]*f_avs[5])*5.9831507640225e-06
variable F46 equal -(f_avssq[20]-f_avs[4]*f_avs[6])*${ffac}
variable F46 equal -(f_avssq[20]-f_avs[4]*f_avs[6])*5.9831507640225e-06

variable F56 equal -(f_avssq[21]-f_avs[5]*f_avs[6])*${ffac}
variable F56 equal -(f_avssq[21]-f_avs[5]*f_avs[6])*5.9831507640225e-06

# Born term

# compute     virial all pressure NULL virial stress==virial


# variable bfac equal ${pconv}/vol
variable B vector f_avborn*${C1}
variable B vector f_avborn*280359.740206985

# Kinetic term

variable kfac equal ${Rhokbt}
variable kfac equal 469317941.457348
variable K11 equal 2.0*${kfac}
variable K11 equal 2.0*469317941.457348
variable K22 equal 2.0*${kfac}
variable K22 equal 2.0*469317941.457348
variable K33 equal 2.0*${kfac}
variable K33 equal 2.0*469317941.457348
variable K44 equal ${kfac}
variable K44 equal 469317941.457348
variable K55 equal ${kfac}
variable K55 equal 469317941.457348
variable K66 equal ${kfac}
variable K66 equal 469317941.457348

# Add F, K, and B together

variable C11 equal v_F11+v_B[1]+v_K11
variable C22 equal v_F22+v_B[2]+v_K22
variable C33 equal v_F33+v_B[3]+v_K33
variable C44 equal v_F44+v_B[4]+v_K44
variable C55 equal v_F55+v_B[5]+v_K55
variable C66 equal v_F66+v_B[6]+v_K66

variable C12 equal v_F12+v_B[7]
variable C13 equal v_F13+v_B[8]
variable C14 equal v_F14+v_B[9]
variable C15 equal v_F15+v_B[10]
variable C16 equal v_F16+v_B[11]

variable C23 equal v_F23+v_B[12]
variable C24 equal v_F24+v_B[13]
variable C25 equal v_F25+v_B[14]
variable C26 equal v_F26+v_B[15]

variable C34 equal v_F34+v_B[16]
variable C35 equal v_F35+v_B[17]
variable C36 equal v_F36+v_B[18]

variable C45 equal v_F45+v_B[19]
variable C46 equal v_F46+v_B[20]

variable C56 equal v_F56+v_B[21]

variable aC11 equal "(v_C11 + v_C22 + v_C33)/3."
variable aC12 equal "(v_C12 + v_C13 + v_C23)/3."
variable aC44 equal "(v_C44 + v_C55 + v_C66)/3."



print """
C11 = ${C11}
C12 = ${C12}
C13 = ${C13}
C14 = ${C14}
C15 = ${C15}
C16 = ${C16}
C22 = ${C22}
C23 = ${C23}
C24 = ${C24}
C25 = ${C25}
C26 = ${C26}
C33 = ${C33}
C34 = ${C34}
C35 = ${C35}
C36 = ${C36}
C44 = ${C44}
C45 = ${C45}
C46 = ${C46}
C55 = ${C55}
C56 = ${C56}
C66 = ${C66}
"""

C11 = 9753806232.52111
C12 = 9984705688.32291
C13 = 7929419223.325
C14 = -3263747996.49816
C15 = 1084841253.68568
C16 = 1994023193.08466
C22 = 6046143714.16521
C23 = 5844356098.94907
C24 = -298897937.466598
C25 = 936574268.293025
C26 = -2472022821.03162
C33 = 8573055038.98739
C34 = -1109006007.06693
C35 = -1559280604.18115
C36 = 651100819.075629
C44 = -837682440.179478
C45 = 1351060406.93896
C46 = 880500010.544873
C55 = -1429380747.23568
C56 = 1671676804.47613
C66 = 999398588.70718

print """
Average-
aC11 = ${aC11}
aC12 = ${aC12}
aC44 = ${aC44}
"""

Average-
aC11 = 8124334995.22457
aC12 = 7919493670.19899
aC44 = -422554866.235993

Total wall time: 3:11:44
