units			real
dimension		3
processors		* * *
boundary		p p p
atom_style		full
pair_style		lj/cut 10.0
bond_style		harmonic
angle_style 	harmonic
read_data		after_cross_linking_correct.data
Reading data file ...
  orthogonal box = (30.222448 27.307948 30.19145) to (59.884552 56.970052 59.853554)
  1 by 1 by 1 MPI processor grid
  reading atoms ...
  2988 atoms
  reading velocities ...
  2988 velocities
  scanning bonds ...
  4 = max bonds/atom
  scanning angles ...
  6 = max angles/atom
  reading bonds ...
  3044 bonds
  reading angles ...
  5800 angles
Finding 1-2 1-3 1-4 neighbors ...
  special bond factors lj:    0        0        0       
  special bond factors coul:  0        0        0       
     4 = max # of 1-2 neighbors
     7 = max # of 1-3 neighbors
    16 = max # of 1-4 neighbors
    20 = max # of special neighbors
  special bonds CPU = 0.007 seconds
  read_data CPU = 0.097 seconds
variable simname index ssc
variable tmp equal "lx"
variable L0 equal ${tmp}
variable L0 equal 29.6621039368179
variable strain equal "(lx - v_L0)/v_L0"
variable p1 equal "v_strain"
variable p2 equal "-pxx/10000*1.01325"
variable p3 equal "-pyy/10000*1.01325"
variable p4 equal "-pzz/10000*1.01325"
variable p5 equal "lx"
variable p6 equal "ly"
variable p7 equal "lz"
variable p8 equal "temp"

fix		1 all npt temp 300 300 50 y 0 0 1000 z 0 0 1000 drag 2
fix		2 all deform 1 x erate 1e-5 units box remap x
fix        3 all ave/time 1 100 100 v_p2 v_p3
variable avg_stress equal f_3[1]
#${p3} ${p4} ${p5} ${p6} ${p7} ${p8}
fix def1 all print 100 "${p1} ${p2} ${avg_stress}" file ${simname}.txt screen no
fix def1 all print 100 "${p1} ${p2} ${avg_stress}" file ssc.txt screen no
thermo_style	custom step temp v_p2 pxx lx v_strain
thermo          100
timestep	1
run		100000
Generated 153 of 153 mixed pair_coeff terms from geometric mixing rule
Last active /omp style is angle_style harmonic/omp
Neighbor list info ...
  update every 1 steps, delay 10 steps, check yes
  max neighbors/atom: 2000, page size: 100000
  master list distance cutoff = 12
  ghost atom cutoff = 12
  binsize = 6, bins = 5 5 5
  1 neighbor lists, perpetual/occasional/extra = 1 0 0
  (1) pair lj/cut/omp, perpetual
      attributes: half, newton on, omp
      pair build: half/bin/newton/omp
      stencil: half/bin/3d
      bin: standard
WARNING: Inconsistent image flags (src/domain.cpp:819)
Per MPI rank memory allocation (min/avg/max) = 27.41 | 27.41 | 27.41 Mbytes
   Step          Temp           v_p2           Pxx             Lx          v_strain   
         0   296.64116     -0.28038351     2767.1701      29.662104      5.9886407e-16
       100   303.21895     -0.045028945    444.40113      29.691766      0.001        
       200   298.89769     -0.046751176    461.39823      29.721428      0.002        
       300   301.23604     -0.089798131    886.23865      29.75109       0.003        
       400   294.75543      0.4495524     -4436.7372      29.780752      0.004        
       500   292.12929      0.25146972    -2481.8132      29.810414      0.005        
       600   301.38282      0.039908797   -393.86921      29.840077      0.006        
       700   297.73279      0.059312261   -585.36651      29.869739      0.007        
       800   301.90348      0.50847062    -5018.2149      29.899401      0.008        
       900   298.47229      0.21290281    -2101.1874      29.929063      0.009        
      1000   300.49338      0.43564222    -4299.4545      29.958725      0.01         
      1100   299.16162     -0.044654816    440.70877      29.988387      0.011        
      1200   297.19289      0.37015873    -3653.1827      30.018049      0.012        
      1300   299.87929      0.022052885   -217.64505      30.047711      0.013        
      1400   297.49443      0.088660253   -875.00867      30.077373      0.014        
      1500   298.86753      0.02146683    -211.86114      30.107035      0.015        
      1600   300.14731     -0.16639711     1642.2118      30.136698      0.016        
      1700   300.73536      0.066655961   -657.84319      30.16636       0.017        
      1800   297.19619      0.36115987    -3564.3707      30.196022      0.018        
      1900   301.06625      0.3110751     -3070.0725      30.225684      0.019        
      2000   297.96247      0.28600551    -2822.6549      30.255346      0.02         
      2100   297.79438      0.22072108    -2178.3477      30.285008      0.021        
      2200   299.14388      0.11352079    -1120.3631      30.31467       0.022        
      2300   303.43384      0.012152275   -119.93363      30.344332      0.023        
      2400   298.37843      0.19874043    -1961.4156      30.373994      0.024        
      2500   296.84198      0.33936019    -3349.2246      30.403657      0.025        
      2600   302.75303      0.095493899   -942.4515       30.433319      0.026        
      2700   297.60177      0.020126875   -198.63681      30.462981      0.027        
      2800   293.65148      0.34654291    -3420.1126      30.492643      0.028        
      2900   306.2658       0.46536895    -4592.8344      30.522305      0.029        
      3000   296.18015      0.22146422    -2185.6819      30.551967      0.03         
      3100   298.74141     -0.109309       1078.7959      30.581629      0.031        
      3200   296.71559      0.084402534   -832.98825      30.611291      0.032        
      3300   298.97772      0.44248901    -4367.027       30.640953      0.033        
      3400   300.43281      0.3127656     -3086.7564      30.670615      0.034        
      3500   300.68128      0.20188868    -1992.4864      30.700278      0.035        
      3600   305.52481      0.40769406    -4023.6276      30.72994       0.036        
      3700   301.38576     -0.10397759     1026.1791      30.759602      0.037        
      3800   306.10816      0.41606295    -4106.222       30.789264      0.038        
      3900   298.45305      0.30470486    -3007.2032      30.818926      0.039        
      4000   294.86988      0.33222877    -3278.843       30.848588      0.04         
      4100   298.49015     -0.061964025    611.53738      30.87825       0.041        
      4200   299.05492     -0.03191018     314.92899      30.907912      0.042        
      4300   299.18138      0.4169022     -4114.5049      30.937574      0.043        
      4400   300.25675      0.051230628   -505.60699      30.967237      0.044        
      4500   301.85874      0.43246182    -4268.0663      30.996899      0.045        
      4600   298.52201      0.24777645    -2445.3634      31.026561      0.046        
      4700   302.86487      0.40814467    -4028.0747      31.056223      0.047        
      4800   299.9179       0.16581139    -1636.4312      31.085885      0.048        
      4900   299.97657      0.029281636   -288.98728      31.115547      0.049        
      5000   296.2248       0.48101822    -4747.2807      31.145209      0.05         
      5100   300.05178      0.31134857    -3072.7715      31.174871      0.051        
      5200   295.48418      0.28342467    -2797.1841      31.204533      0.052        
      5300   299.75872      0.3898501     -3847.5214      31.234195      0.053        
      5400   300.07626      0.44940698    -4435.302       31.263858      0.054        
      5500   301.31888      0.42390575    -4183.6245      31.29352       0.055        
      5600   301.38503      0.18123371    -1788.6377      31.323182      0.056        
      5700   291.76148      0.36314955    -3584.0074      31.352844      0.057        
      5800   301.55428      0.014084498   -139.00318      31.382506      0.058        
      5900   303.36369      0.11083122    -1093.8191      31.412168      0.059        
      6000   299.19719     -0.036285879    358.11378      31.44183       0.06         
      6100   299.55378      0.32788134    -3235.9372      31.471492      0.061        
      6200   300.38277      0.11930232    -1177.4224      31.501154      0.062        
      6300   300.42547     -0.219595       2167.2341      31.530816      0.063        
      6400   304.00914      0.21712187    -2142.8263      31.560479      0.064        
      6500   297.81902      0.39822509    -3930.176       31.590141      0.065        
      6600   300.07471      0.24312053    -2399.4131      31.619803      0.066        
      6700   300.50451      0.13364093    -1318.9334      31.649465      0.067        
      6800   295.56811      0.5238995     -5170.486       31.679127      0.068        
      6900   299.70565      0.55915369    -5518.4179      31.708789      0.069        
      7000   300.0766       0.35731458    -3526.4208      31.738451      0.07         
      7100   297.857        0.38528482    -3802.4655      31.768113      0.071        
      7200   298.90053      0.54301079    -5359.0998      31.797775      0.072        
      7300   299.36193      0.24604571    -2428.2824      31.827438      0.073        
      7400   293.39853      0.0055517328  -54.791342      31.8571        0.074        
      7500   295.76328      0.078996224   -779.63212      31.886762      0.075        
      7600   301.45478      0.081530206   -804.64057      31.916424      0.076        
      7700   299.41287      0.16508117    -1629.2245      31.946086      0.077        
      7800   303.72316      0.6886073     -6796.0257      31.975748      0.078        
      7900   294.63476      0.88792295    -8763.1182      32.00541       0.079        
      8000   297.76123      0.59769952    -5898.8356      32.035072      0.08         
      8100   294.90737      0.39003824    -3849.3781      32.064734      0.081        
      8200   298.94032      0.26697859    -2634.8739      32.094396      0.082        
      8300   302.09988      0.4195201     -4140.3414      32.124059      0.083        
      8400   305.40323      0.54939105    -5422.0681      32.153721      0.084        
      8500   297.62499      0.24531534    -2421.0742      32.183383      0.085        
      8600   299.37845      0.16412772    -1619.8146      32.213045      0.086        
      8700   302.87608      0.41951799    -4140.3207      32.242707      0.087        
      8800   302.45626      0.29892195    -2950.1302      32.272369      0.088        
      8900   296.07363      0.29716158    -2932.7568      32.302031      0.089        
      9000   301.66062      0.088814195   -876.52796      32.331693      0.09         
      9100   300.7935       0.37687793    -3719.496       32.361355      0.091        
      9200   302.19906      0.32714944    -3228.7139      32.391017      0.092        
      9300   301.90427      0.3500179     -3454.4081      32.42068       0.093        
      9400   296.19554      0.139013      -1371.9516      32.450342      0.094        
      9500   296.89648      0.37480846    -3699.0719      32.480004      0.095        
      9600   301.7472       0.34335774    -3388.6775      32.509666      0.096        
      9700   302.15934      0.23159888    -2285.7033      32.539328      0.097        
      9800   294.81902      0.38247493    -3774.734       32.56899       0.098        
      9900   301.03764      0.70468869    -6954.7367      32.598652      0.099        
     10000   306.39222      0.29140886    -2875.9818      32.628314      0.1          
     10100   300.22117      0.036499306   -360.22014      32.657976      0.101        
     10200   303.67359      0.17353423    -1712.6497      32.687639      0.102        
     10300   300.64016     -0.1411417      1392.9603      32.717301      0.103        
     10400   303.59381      0.29529714    -2914.3562      32.746963      0.104        
     10500   299.84742     -0.08514051     840.2715       32.776625      0.105        
     10600   298.06393      0.18260737    -1802.1946      32.806287      0.106        
     10700   300.00339      0.51286614    -5061.5952      32.835949      0.107        
     10800   299.88152      0.38996194    -3848.6251      32.865611      0.108        
     10900   303.2777       0.46825744    -4621.3417      32.895273      0.109        
     11000   298.44331      0.34849027    -3439.3315      32.924935      0.11         
     11100   302.89069      0.45536923    -4494.1449      32.954597      0.111        
     11200   301.72702      0.36857968    -3637.5986      32.98426       0.112        
     11300   302.94819      0.26644264    -2629.5844      33.013922      0.113        
     11400   298.21934      0.27219113    -2686.3176      33.043584      0.114        
     11500   302.01054      0.51804759    -5112.7322      33.073246      0.115        
     11600   301.51092      0.46122972    -4551.9834      33.102908      0.116        
     11700   299.20262      0.013099647   -129.28347      33.13257       0.117        
     11800   303.19195      0.37378834    -3689.0041      33.162232      0.118        
     11900   298.52307      0.2265646     -2236.0188      33.191894      0.119        
     12000   295.92155      0.10407364    -1027.127       33.221556      0.12         
     12100   301.67704      0.2634473     -2600.0227      33.251219      0.121        
     12200   295.37778      0.44529022    -4394.6728      33.280881      0.122        
     12300   299.6412       0.51469017    -5079.5971      33.310543      0.123        
     12400   298.37887      0.31606934    -3119.3618      33.340205      0.124        
     12500   300.59246      0.17680676    -1744.9471      33.369867      0.125        
     12600   293.95597      0.49524294    -4887.6678      33.399529      0.126        
     12700   296.54534      0.2492333     -2459.7414      33.429191      0.127        
     12800   302.87679      0.054226194   -535.17092      33.458853      0.128        
     12900   301.20783      0.062982294   -621.58691      33.488515      0.129        
     13000   300.78577      0.30330095    -2993.3476      33.518177      0.13         
     13100   302.89308      0.20722322    -2045.1342      33.54784       0.131        
     13200   303.529        0.39293659    -3877.9826      33.577502      0.132        
     13300   299.31562      0.42630736    -4207.3265      33.607164      0.133        
     13400   297.33897      0.43620227    -4304.9816      33.636826      0.134        
     13500   298.36332      0.22791467    -2249.3429      33.666488      0.135        
     13600   299.87144      0.13310906    -1313.6843      33.69615       0.136        
     13700   301.32767      0.33516707    -3307.8418      33.725812      0.137        
     13800   302.58579      0.63482239    -6265.2099      33.755474      0.138        
     13900   299.15096      0.3973853     -3921.8879      33.785136      0.139        
     14000   294.9277       0.18522335    -1828.0123      33.814798      0.14         
     14100   309.38295      0.48289284    -4765.7818      33.844461      0.141        
     14200   301.1388       0.277358      -2737.3107      33.874123      0.142        
     14300   296.60152      0.43878817    -4330.5025      33.903785      0.143        
     14400   296.09125      0.51716591    -5104.0307      33.933447      0.144        
     14500   300.09196      0.48339245    -4770.7126      33.963109      0.145        
     14600   299.12554      0.41937015    -4138.8616      33.992771      0.146        
     14700   303.0961       0.56960795    -5621.5934      34.022433      0.147        
     14800   300.22864      0.42483534    -4192.7988      34.052095      0.148        
     14900   299.61826      0.79004174    -7797.1057      34.081757      0.149        
     15000   295.36308      0.78576884    -7754.9355      34.11142       0.15         
     15100   300.58979      0.029568345   -291.81687      34.141082      0.151        
     15200   299.62028      0.35432674    -3496.9331      34.170744      0.152        
     15300   295.61087      0.56735257    -5599.3345      34.200406      0.153        
     15400   297.62341      0.34326425    -3387.7547      34.230068      0.154        
     15500   298.10234      0.54993519    -5427.4383      34.25973       0.155        
     15600   302.62881      0.87649635    -8650.3464      34.289392      0.156        
     15700   301.54351      0.35676028    -3520.9502      34.319054      0.157        
     15800   294.03877      0.58920785    -5815.0293      34.348716      0.158        
     15900   302.79572      0.21287481    -2100.9111      34.378378      0.159        
     16000   303.67795      0.80824597    -7976.7675      34.408041      0.16         
     16100   298.3547       0.20974725    -2070.0444      34.437703      0.161        
     16200   305.04344      0.31134725    -3072.7585      34.467365      0.162        
     16300   293.23616      0.49690283    -4904.0496      34.497027      0.163        
     16400   298.29089      0.42102902    -4155.2334      34.526689      0.164        
     16500   302.965        0.35887476    -3541.8185      34.556351      0.165        
     16600   298.45352      0.53380695    -5268.2649      34.586013      0.166        
     16700   297.2669       0.3711626     -3663.09        34.615675      0.167        
     16800   298.28629      0.21913083    -2162.6531      34.645337      0.168        
     16900   299.88496      0.64171662    -6333.2506      34.675         0.169        
     17000   297.5376       0.2164417     -2136.1135      34.704662      0.17         
     17100   297.41963      0.4119733     -4065.8604      34.734324      0.171        
     17200   299.85458      0.53035958    -5234.2421      34.763986      0.172        
     17300   308.34319     -0.047768133    471.43482      34.793648      0.173        
     17400   300.79391      0.5435205     -5364.1303      34.82331       0.174        
     17500   294.84         0.3222403     -3180.2645      34.852972      0.175        
     17600   301.15389      0.28837183    -2846.0087      34.882634      0.176        
     17700   301.015        0.71495864    -7056.0931      34.912296      0.177        
     17800   298.7415       0.21881129    -2159.4996      34.941958      0.178        
     17900   307.5216       0.4974175     -4909.1291      34.971621      0.179        
     18000   300.24341      0.28067884    -2770.0848      35.001283      0.18         
     18100   296.42005      0.25011583    -2468.4514      35.030945      0.181        
     18200   302.08995      0.34439634    -3398.9276      35.060607      0.182        
     18300   300.98713      0.42072148    -4152.1982      35.090269      0.183        
     18400   298.84997      0.94007831    -9277.8516      35.119931      0.184        
     18500   297.69978      0.3768494     -3719.2145      35.149593      0.185        
     18600   300.97044      0.37960178    -3746.3783      35.179255      0.186        
     18700   299.47188      0.78086445    -7706.533       35.208917      0.187        
     18800   297.81734      0.60846442    -6005.077       35.238579      0.188        
     18900   301.65093      0.37915731    -3741.9917      35.268242      0.189        
     19000   299.71819      0.46863035    -4625.022       35.297904      0.19         
     19100   299.73402      0.46432361    -4582.5177      35.327566      0.191        
     19200   302.23672      0.57123622    -5637.6631      35.357228      0.192        
     19300   301.87257      0.58299459    -5753.7093      35.38689       0.193        
     19400   302.70987      0.55844024    -5511.3767      35.416552      0.194        
     19500   288.58139      0.68178104    -6728.6557      35.446214      0.195        
     19600   301.6194       0.63311123    -6248.322       35.475876      0.196        
     19700   310.71347      0.50149496    -4949.3705      35.505538      0.197        
     19800   297.0375       0.69182059    -6827.7384      35.535201      0.198        
     19900   297.56473      0.64634695    -6378.9485      35.564863      0.199        
     20000   302.77229      0.69674232    -6876.312       35.594525      0.2          
     20100   294.52813      0.68806756    -6790.6989      35.624187      0.201        
     20200   298.88499      0.47841886    -4721.6271      35.653849      0.202        
     20300   302.39974      0.76879365    -7587.4034      35.683511      0.203        
     20400   298.83262      0.52252254    -5156.8965      35.713173      0.204        
     20500   294.87802      0.53251186    -5255.4834      35.742835      0.205        
     20600   296.29099      0.57058187    -5631.2053      35.772497      0.206        
     20700   296.57248      0.62922941    -6210.0114      35.802159      0.207        
     20800   298.56724      0.40163917    -3963.8704      35.831822      0.208        
     20900   298.67197      0.63963476    -6312.7043      35.861484      0.209        
     21000   299.65276      0.53382788    -5268.4716      35.891146      0.21         
     21100   299.3264       0.40160148    -3963.4985      35.920808      0.211        
     21200   304.26834      0.61530454    -6072.5836      35.95047       0.212        
     21300   298.38334      0.72143707    -7120.0303      35.980132      0.213        
     21400   298.91964      0.42589173    -4203.2246      36.009794      0.214        
     21500   299.35138      0.70849882    -6992.3397      36.039456      0.215        
     21600   295.38037      0.71358237    -7042.5104      36.069118      0.216        
     21700   294.36728      0.58671931    -5790.4694      36.09878       0.217        
     21800   303.5422       0.6987292     -6895.9211      36.128443      0.218        
     21900   301.49362      0.27522821    -2716.2913      36.158105      0.219        
     22000   302.93954      0.39669939    -3915.1186      36.187767      0.22         
     22100   293.56731      0.39557487    -3904.0204      36.217429      0.221        
     22200   301.1644       0.74904335    -7392.4831      36.247091      0.222        
     22300   297.40788      0.67493208    -6661.0617      36.276753      0.223        
     22400   297.02254      0.77816637    -7679.905       36.306415      0.224        
     22500   300.16918      0.43653727    -4308.2878      36.336077      0.225        
     22600   301.09508      0.54927162    -5420.8894      36.365739      0.226        
     22700   296.09193      0.37145277    -3665.9538      36.395402      0.227        
     22800   300.49777      0.10830332    -1068.8707      36.425064      0.228        
     22900   297.80811      0.46952842    -4633.8852      36.454726      0.229        
     23000   300.64023      0.62305916    -6149.1158      36.484388      0.23         
     23100   300.81307      0.97472635    -9619.8011      36.51405       0.231        
     23200   296.38911      0.94511093    -9327.5197      36.543712      0.232        
     23300   296.73163      0.90200214    -8902.069       36.573374      0.233        
     23400   300.67256      0.54286868    -5357.6973      36.603036      0.234        
     23500   302.29315      0.69130935    -6822.6928      36.632698      0.235        
     23600   300.42397      0.85905173    -8478.1814      36.66236       0.236        
     23700   296.80953      0.63756277    -6292.2553      36.692023      0.237        
     23800   299.97918      0.50911875    -5024.6114      36.721685      0.238        
     23900   299.53655      1.111865      -10973.254      36.751347      0.239        
     24000   299.46308      0.84780081    -8367.1434      36.781009      0.24         
     24100   300.98523      0.66344814    -6547.724       36.810671      0.241        
     24200   303.61083      0.22027008    -2173.8966      36.840333      0.242        
     24300   309.08391      0.21865291    -2157.9365      36.869995      0.243        
     24400   293.35298      0.37520662    -3703.0014      36.899657      0.244        
     24500   297.20394      0.66934929    -6605.9639      36.929319      0.245        
     24600   297.55176      0.5795795     -5720.005       36.958982      0.246        
     24700   303.64075      0.32357905    -3193.4769      36.988644      0.247        
     24800   299.34055      0.39473323    -3895.7141      37.018306      0.248        
     24900   297.56905      0.76701121    -7569.8121      37.047968      0.249        
     25000   305.5886       0.71353014    -7041.9949      37.07763       0.25         
     25100   304.02719      0.57066907    -5632.0658      37.107292      0.251        
     25200   301.20513      0.5554871     -5482.2314      37.136954      0.252        
     25300   300.29665      0.85430081    -8431.2935      37.166616      0.253        
     25400   308.53675      0.35577145    -3511.1912      37.196278      0.254        
     25500   300.42667      0.6095001     -6015.2983      37.22594       0.255        
     25600   298.18925      0.68115116    -6722.4393      37.255603      0.256        
     25700   296.90878      0.68498707    -6760.2968      37.285265      0.257        
     25800   300.93015      0.81619462    -8055.2146      37.314927      0.258        
     25900   306.86778      0.37977871    -3748.1244      37.344589      0.259        
     26000   304.77044      0.47109544    -4649.3505      37.374251      0.26         
     26100   294.40944      0.54275974    -5356.6221      37.403913      0.261        
     26200   301.99906      0.95203994    -9395.9037      37.433575      0.262        
     26300   304.35028      0.74105018    -7313.5966      37.463237      0.263        
     26400   295.52144      0.66988895    -6611.2899      37.492899      0.264        
     26500   297.84426      0.85881786    -8475.8733      37.522561      0.265        
     26600   297.29758      1.1208111     -11061.545      37.552224      0.266        
     26700   302.27054      0.75025483    -7404.4395      37.581886      0.267        
     26800   305.26054      0.7023249     -6931.4079      37.611548      0.268        
     26900   299.51079      0.77374648    -7636.2841      37.64121       0.269        
     27000   298.30931      0.42155155    -4160.3903      37.670872      0.27         
     27100   297.85832      0.38610241    -3810.5345      37.700534      0.271        
     27200   301.14728      0.72763189    -7181.1685      37.730196      0.272        
     27300   291.60382      0.56142009    -5540.7854      37.759858      0.273        
     27400   303.96668      0.67914794    -6702.669       37.78952       0.274        
     27500   299.45578      0.66727972    -6585.5388      37.819183      0.275        
     27600   302.27493      0.65521453    -6466.4647      37.848845      0.276        
     27700   304.27275      1.0548216     -10410.279      37.878507      0.277        
     27800   303.88557      0.72387075    -7144.0488      37.908169      0.278        
     27900   301.01275      0.78208581    -7718.5868      37.937831      0.279        
     28000   300.868        0.67042176    -6616.5483      37.967493      0.28         
     28100   295.15631      0.87926708    -8677.6914      37.997155      0.281        
     28200   306.03349      0.8291785     -8183.3555      38.026817      0.282        
     28300   303.4724       0.55840508    -5511.0296      38.056479      0.283        
     28400   299.02589      1.1451742     -11301.991      38.086141      0.284        
     28500   298.10869      0.92010745    -9080.7545      38.115804      0.285        
     28600   298.41532      0.68292469    -6739.9426      38.145466      0.286        
     28700   298.1528       0.74602958    -7362.7395      38.175128      0.287        
     28800   301.16254      0.686005      -6770.3429      38.20479       0.288        
     28900   297.845        0.6882978     -6792.9712      38.234452      0.289        
     29000   298.98765      0.89688071    -8851.5244      38.264114      0.29         
     29100   304.93528      0.43580357    -4301.0469      38.293776      0.291        
     29200   296.87672      0.46797017    -4618.5065      38.323438      0.292        
     29300   303.63449      0.67851426    -6696.4151      38.3531        0.293        
     29400   296.86327      0.43327626    -4276.1042      38.382762      0.294        
     29500   300.3437       0.86062903    -8493.7482      38.412425      0.295        
     29600   299.28805      0.70261508    -6934.2717      38.442087      0.296        
     29700   301.36385      0.90187052    -8900.77        38.471749      0.297        
     29800   301.20491      0.86224336    -8509.6804      38.501411      0.298        
     29900   300.18461      0.64896222    -6404.7591      38.531073      0.299        
     30000   305.09856      0.72959475    -7200.5403      38.560735      0.3          
     30100   295.5983       0.72592736    -7164.346       38.590397      0.301        
     30200   299.97852      0.8908457     -8791.9635      38.620059      0.302        
     30300   306.08309      0.57933363    -5717.5784      38.649721      0.303        
     30400   304.22441      0.79863623    -7881.9268      38.679384      0.304        
     30500   303.38528      1.002505      -9893.9549      38.709046      0.305        
     30600   300.12918      0.63295617    -6246.7917      38.738708      0.306        
     30700   301.7016       0.94763281    -9352.4087      38.76837       0.307        
     30800   299.70792      0.74673901    -7369.741       38.798032      0.308        
     30900   298.7428       0.66093776    -6522.9485      38.827694      0.309        
     31000   305.13212      0.79640658    -7859.9218      38.857356      0.31         
     31100   302.53149      0.54786184    -5406.976       38.887018      0.311        
     31200   299.9246       0.90934938    -8974.5806      38.91668       0.312        
     31300   296.94944      0.89564291    -8839.3083      38.946342      0.313        
     31400   302.3694       0.79905805    -7886.0898      38.976005      0.314        
     31500   302.94985      0.95728205    -9447.6393      39.005667      0.315        
     31600   300.8783       0.83660592    -8256.6584      39.035329      0.316        
     31700   298.96949      1.0035514     -9904.2825      39.064991      0.317        
     31800   303.14335      0.92436261    -9122.7496      39.094653      0.318        
     31900   300.64181      1.0188105     -10054.878      39.124315      0.319        
     32000   293.70507      0.52651177    -5196.2671      39.153977      0.32         
     32100   298.32132      0.69295867    -6838.9703      39.183639      0.321        
     32200   305.26962      0.96189771    -9493.1923      39.213301      0.322        
     32300   299.54316      0.52383735    -5169.8727      39.242964      0.323        
     32400   298.88052      0.74112201    -7314.3056      39.272626      0.324        
     32500   298.8985       0.87760799    -8661.3175      39.302288      0.325        
     32600   302.84776      0.42492164    -4193.6505      39.33195       0.326        
     32700   298.47178      0.90561551    -8937.7302      39.361612      0.327        
     32800   294.89201      0.914169      -9022.1466      39.391274      0.328        
     32900   304.33864      0.78942217    -7790.9911      39.420936      0.329        
     33000   297.75676      0.7145014     -7051.5806      39.450598      0.33         
     33100   299.40788      1.1364929     -11216.313      39.48026       0.331        
     33200   301.14026      0.88696334    -8753.6476      39.509922      0.332        
     33300   299.56074      0.91783765    -9058.3533      39.539585      0.333        
     33400   300.55043      0.79748993    -7870.6136      39.569247      0.334        
     33500   297.89002      1.0002007     -9871.213       39.598909      0.335        
     33600   303.26667      0.81793777    -8072.4181      39.628571      0.336        
     33700   298.14105      0.81410217    -8034.5637      39.658233      0.337        
     33800   303.46702      0.98183531    -9689.9611      39.687895      0.338        
     33900   296.90863      0.89487118    -8831.6919      39.717557      0.339        
     34000   302.82167      0.90801403    -8961.4017      39.747219      0.34         
     34100   293.82741      0.9461085     -9337.3649      39.776881      0.341        
     34200   299.17692      1.0657174     -10517.813      39.806543      0.342        
     34300   295.34245      1.1048403     -10903.926      39.836206      0.343        
     34400   300.19068      1.0095826     -9963.8056      39.865868      0.344        
     34500   298.25099      0.67299496    -6641.9438      39.89553       0.345        
     34600   299.3327       0.94661049    -9342.3192      39.925192      0.346        
     34700   298.29604      0.82985975    -8190.0789      39.954854      0.347        
     34800   298.42118      0.8463564     -8352.8882      39.984516      0.348        
     34900   299.09809      0.91343434    -9014.896       40.014178      0.349        
     35000   297.85365      1.0919306     -10776.518      40.04384       0.35         
     35100   296.54097      1.1071705     -10926.923      40.073502      0.351        
     35200   300.52037      1.1109779     -10964.5        40.103165      0.352        
     35300   302.52876      0.96636199    -9537.2513      40.132827      0.353        
     35400   299.82764      1.2047825     -11890.279      40.162489      0.354        
     35500   296.80282      0.84134918    -8303.4708      40.192151      0.355        
     35600   297.68867      1.1145897     -11000.145      40.221813      0.356        
     35700   301.29962      1.0567564     -10429.375      40.251475      0.357        
     35800   308.7236       0.9647747     -9521.586       40.281137      0.358        
     35900   297.36684      1.0385933     -10250.119      40.310799      0.359        
     36000   297.0559       1.0375762     -10240.081      40.340461      0.36         
     36100   294.72313      1.1166143     -11020.126      40.370123      0.361        
     36200   303.90128      0.85892333    -8476.9142      40.399786      0.362        
     36300   294.12407      0.99327602    -9802.8721      40.429448      0.363        
     36400   297.36144      0.96176631    -9491.8955      40.45911       0.364        
     36500   307.83418      1.3840201     -13659.216      40.488772      0.365        
     36600   299.2077       0.88948801    -8778.5641      40.518434      0.366        
     36700   294.16181      0.9669002     -9542.563       40.548096      0.367        
     36800   299.28278      0.71545606    -7061.0023      40.577758      0.368        
     36900   298.77306      1.2094161     -11936.009      40.60742       0.369        
     37000   295.28505      0.92408358    -9119.9958      40.637082      0.37         
     37100   302.37324      1.0613553     -10474.762      40.666744      0.371        
     37200   301.83782      1.1572856     -11421.521      40.696407      0.372        
     37300   301.08927      1.0022234     -9891.1755      40.726069      0.373        
     37400   301.59234      1.1048554     -10904.075      40.755731      0.374        
     37500   299.46252      1.1945604     -11789.395      40.785393      0.375        
     37600   305.31225      0.88371939    -8721.6323      40.815055      0.376        
     37700   304.89135      0.91091873    -8990.0689      40.844717      0.377        
     37800   303.43324      1.2429993     -12267.449      40.874379      0.378        
     37900   296.67249      0.87100935    -8596.1939      40.904041      0.379        
     38000   290.23022      0.94928101    -9368.6751      40.933703      0.38         
     38100   300.02536      1.1441906     -11292.283      40.963366      0.381        
     38200   299.52948      1.4150735     -13965.69       40.993028      0.382        
     38300   297.21324      1.5536216     -15333.053      41.02269       0.383        
     38400   300.55004      0.9057334     -8938.8936      41.052352      0.384        
     38500   297.70485      1.5035138     -14838.527      41.082014      0.385        
     38600   295.90685      1.0898652     -10756.133      41.111676      0.386        
     38700   300.24908      1.1077763     -10932.902      41.141338      0.387        
     38800   299.8208       1.2191784     -12032.355      41.171         0.388        
     38900   303.80571      1.0843646     -10701.847      41.200662      0.389        
     39000   302.57481      0.93608257    -9238.4166      41.230324      0.39         
     39100   298.31404      1.3957537     -13775.018      41.259987      0.391        
     39200   301.28655      1.3826332     -13645.529      41.289649      0.392        
     39300   300.71805      1.5354267     -15153.483      41.319311      0.393        
     39400   301.71138      1.2875063     -12706.699      41.348973      0.394        
     39500   299.81276      1.0541508     -10403.66       41.378635      0.395        
     39600   306.18974      1.4925121     -14729.95       41.408297      0.396        
     39700   300.54945      1.2297925     -12137.108      41.437959      0.397        
     39800   296.10396      1.2892542     -12723.949      41.467621      0.398        
     39900   292.19524      1.6681404     -16463.266      41.497283      0.399        
     40000   299.36077      1.5832631     -15625.592      41.526946      0.4          
     40100   298.35393      1.3068311     -12897.42       41.556608      0.401        
     40200   298.66992      1.5509342     -15306.531      41.58627       0.402        
     40300   299.30585      1.4371084     -14183.157      41.615932      0.403        
     40400   297.39084      1.5731981     -15526.258      41.645594      0.404        
     40500   302.50788      1.3905827     -13723.984      41.675256      0.405        
     40600   299.04102      1.6729814     -16511.042      41.704918      0.406        
     40700   295.21653      1.52957       -15095.682      41.73458       0.407        
     40800   309.32723      1.5004682     -14808.469      41.764242      0.408        
     40900   306.07594      1.3885096     -13703.524      41.793904      0.409        
     41000   303.47807      1.3253938     -13080.62       41.823567      0.41         
     41100   298.9205       1.5536048     -15332.888      41.853229      0.411        
     41200   299.15273      1.1651094     -11498.735      41.882891      0.412        
     41300   297.17772      1.2932589     -12763.473      41.912553      0.413        
     41400   299.54935      1.5394371     -15193.063      41.942215      0.414        
     41500   302.77735      1.4318316     -14131.079      41.971877      0.415        
     41600   298.08177      1.6648123     -16430.42       42.001539      0.416        
     41700   300.70923      1.5489508     -15286.956      42.031201      0.417        
     41800   297.03354      1.3791768     -13611.417      42.060863      0.418        
     41900   296.93407      1.5166084     -14967.761      42.090525      0.419        
     42000   301.18646      1.6322365     -16108.921      42.120188      0.42         
     42100   287.95255      1.5980863     -15771.886      42.14985       0.421        
     42200   298.94937      1.7534873     -17305.574      42.179512      0.422        
     42300   293.22756      1.6758616     -16539.468      42.209174      0.423        
     42400   298.8631       1.4596455     -14405.581      42.238836      0.424        
     42500   301.64282      1.4544746     -14354.549      42.268498      0.425        
     42600   302.89338      1.5134914     -14936.999      42.29816       0.426        
     42700   299.63222      1.791485      -17680.582      42.327822      0.427        
     42800   300.71225      1.5204102     -15005.282      42.357484      0.428        
     42900   303.43429      2.0387969     -20121.361      42.387147      0.429        
     43000   298.30942      1.881627      -18570.215      42.416809      0.43         
     43100   301.87757      1.9641371     -19384.526      42.446471      0.431        
     43200   297.94916      1.5419953     -15218.31       42.476133      0.432        
     43300   302.00461      1.542714      -15225.404      42.505795      0.433        
     43400   300.80729      1.6562499     -16345.916      42.535457      0.434        
     43500   297.04343      1.6717178     -16498.572      42.565119      0.435        
     43600   299.23325      1.626764      -16054.913      42.594781      0.436        
     43700   298.17259      1.7346364     -17119.53       42.624443      0.437        
     43800   305.20433      1.5851975     -15644.683      42.654105      0.438        
     43900   303.74893      1.8390831     -18150.339      42.683768      0.439        
     44000   303.5643       1.695679      -16735.05       42.71343       0.44         
     44100   299.74087      1.7285065     -17059.033      42.743092      0.441        
     44200   296.05433      1.8852792     -18606.259      42.772754      0.442        
     44300   296.28901      1.790611      -17671.956      42.802416      0.443        
     44400   298.79293      1.5808241     -15601.521      42.832078      0.444        
     44500   299.02906      1.6796944     -16577.295      42.86174       0.445        
     44600   295.47482      1.7784548     -17551.984      42.891402      0.446        
     44700   302.15234      1.7577391     -17347.536      42.921064      0.447        
     44800   298.97834      1.7097577     -16873.997      42.950727      0.448        
     44900   301.11066      1.5975145     -15766.242      42.980389      0.449        
     45000   300.21943      1.9694793     -19437.249      43.010051      0.45         
     45100   298.06183      1.861372      -18370.314      43.039713      0.451        
     45200   299.81951      1.9061802     -18812.536      43.069375      0.452        
     45300   302.91824      1.9821585     -19562.383      43.099037      0.453        
     45400   300.94769      2.1039836     -20764.704      43.128699      0.454        
     45500   295.80195      2.0228182     -19963.664      43.158361      0.455        
     45600   307.97265      1.4577322     -14386.698      43.188023      0.456        
     45700   306.38597      1.7383766     -17156.444      43.217685      0.457        
     45800   302.02191      1.8100362     -17863.669      43.247348      0.458        
     45900   301.79579      1.8153465     -17916.077      43.27701       0.459        
     46000   297.3202       1.5842548     -15635.379      43.306672      0.46         
     46100   296.32781      1.655737      -16340.854      43.336334      0.461        
     46200   301.62432      1.7015364     -16792.858      43.365996      0.462        
     46300   304.84052      1.7791424     -17558.77       43.395658      0.463        
     46400   307.03189      1.7979143     -17744.034      43.42532       0.464        
     46500   295.65464      2.0195926     -19931.829      43.454982      0.465        
     46600   303.28278      2.0484256     -20216.389      43.484644      0.466        
     46700   300.5819       2.0785322     -20513.518      43.514306      0.467        
     46800   296.85642      1.8326639     -18086.986      43.543969      0.468        
     46900   297.06543      1.8749589     -18504.405      43.573631      0.469        
     47000   298.88443      1.8521596     -18279.394      43.603293      0.47         
     47100   303.51066      2.0216043     -19951.683      43.632955      0.471        
     47200   293.94366      2.1528023     -21246.507      43.662617      0.472        
     47300   296.63888      1.7224856     -16999.611      43.692279      0.473        
     47400   299.36056      2.0693106     -20422.508      43.721941      0.474        
     47500   301.74758      2.0660024     -20389.859      43.751603      0.475        
     47600   302.84876      1.8501557     -18259.617      43.781265      0.476        
     47700   301.03244      1.8119347     -17882.405      43.810928      0.477        
     47800   297.92352      1.9878671     -19618.723      43.84059       0.478        
     47900   297.02988      2.0499415     -20231.349      43.870252      0.479        
     48000   298.49136      2.1183785     -20906.771      43.899914      0.48         
     48100   302.99055      1.7298732     -17072.521      43.929576      0.481        
     48200   303.02685      2.2230026     -21939.329      43.959238      0.482        
     48300   303.41359      1.950912      -19254.004      43.9889        0.483        
     48400   298.16529      1.9685258     -19427.839      44.018562      0.484        
     48500   308.001        2.1532003     -21250.434      44.048224      0.485        
     48600   300.06774      2.04332       -20166          44.077886      0.486        
     48700   294.35407      1.8222122     -17983.836      44.107549      0.487        
     48800   301.88814      1.9334593     -19081.76       44.137211      0.488        
     48900   297.27371      1.7401486     -17173.932      44.166873      0.489        
     49000   303.24823      2.0574209     -20305.166      44.196535      0.49         
     49100   304.08874      2.1445986     -21165.543      44.226197      0.491        
     49200   300.26715      2.0138517     -19875.171      44.255859      0.492        
     49300   297.67804      2.1832629     -21547.13       44.285521      0.493        
     49400   297.66273      2.1381107     -21101.512      44.315183      0.494        
     49500   300.55623      2.0537856     -20269.288      44.344845      0.495        
     49600   293.9822       2.1767234     -21482.59       44.374507      0.496        
     49700   305.55448      2.0523261     -20254.884      44.40417       0.497        
     49800   297.07158      2.4525878     -24205.159      44.433832      0.498        
     49900   295.79703      2.3117922     -22815.615      44.463494      0.499        
     50000   303.95365      2.2173507     -21883.55       44.493156      0.5          
     50100   298.03448      2.0884656     -20611.553      44.522818      0.501        
     50200   298.18931      2.2063186     -21774.672      44.55248       0.502        
     50300   300.34416      1.8822389     -18576.254      44.582142      0.503        
     50400   299.89603      1.9633573     -19376.83       44.611804      0.504        
     50500   296.30642      2.1299314     -21020.789      44.641466      0.505        
     50600   303.15971      2.2717101     -22420.036      44.671129      0.506        
     50700   301.03498      2.4259448     -23942.214      44.700791      0.507        
     50800   298.58982      2.2275539     -21984.247      44.730453      0.508        
     50900   304.20695      2.0960164     -20686.074      44.760115      0.509        
     51000   300.12694      2.1747167     -21462.785      44.789777      0.51         
     51100   303.45107      2.3814488     -23503.072      44.819439      0.511        
     51200   301.74978      2.3437797     -23131.307      44.849101      0.512        
     51300   298.70623      2.392525      -23612.386      44.878763      0.513        
     51400   297.44231      2.1627711     -21344.891      44.908425      0.514        
     51500   297.63502      2.175767      -21473.151      44.938087      0.515        
     51600   295.92043      2.4053379     -23738.839      44.96775       0.516        
     51700   298.94303      2.4883372     -24557.979      44.997412      0.517        
     51800   297.31072      2.3894736     -23582.271      45.027074      0.518        
     51900   298.36955      2.5629571     -25294.42       45.056736      0.519        
     52000   295.78862      2.3102238     -22800.136      45.086398      0.52         
     52100   303.08316      2.5932798     -25593.682      45.11606       0.521        
     52200   295.67376      2.2467208     -22173.411      45.145722      0.522        
     52300   298.78294      2.6766286     -26416.27       45.175384      0.523        
     52400   304.07385      2.7231332     -26875.235      45.205046      0.524        
     52500   297.08874      2.4080857     -23765.958      45.234709      0.525        
     52600   304.26954      2.3422207     -23115.921      45.264371      0.526        
     52700   307.83568      2.4187651     -23871.355      45.294033      0.527        
     52800   296.44745      2.6492677     -26146.239      45.323695      0.528        
     52900   296.43435      2.6434966     -26089.283      45.353357      0.529        
     53000   301.68763      2.6903145     -26551.339      45.383019      0.53         
     53100   303.18039      2.5905214     -25566.458      45.412681      0.531        
     53200   299.25897      3.0168921     -29774.41       45.442343      0.532        
     53300   303.44803      2.6649512     -26301.024      45.472005      0.533        
     53400   304.94808      2.5035806     -24708.42       45.501667      0.534        
     53500   300.02899      2.6168387     -25826.19       45.53133       0.535        
     53600   302.81931      2.656726      -26219.847      45.560992      0.536        
     53700   303.22123      2.6203481     -25860.825      45.590654      0.537        
     53800   298.50748      2.5433609     -25101.021      45.620316      0.538        
     53900   298.47617      2.6982807     -26629.96       45.649978      0.539        
     54000   302.43545      2.5821498     -25483.837      45.67964       0.54         
     54100   298.80463      2.6771413     -26421.33       45.709302      0.541        
     54200   299.31449      2.5404466     -25072.259      45.738964      0.542        
     54300   292.31052      2.8764106     -28387.966      45.768626      0.543        
     54400   296.67869      2.6773233     -26423.127      45.798288      0.544        
     54500   300.35659      2.876385      -28387.713      45.827951      0.545        
     54600   298.54481      2.908861      -28708.226      45.857613      0.546        
     54700   303.91648      2.9527311     -29141.19       45.887275      0.547        
     54800   301.38469      2.7959432     -27593.814      45.916937      0.548        
     54900   301.52116      2.6060141     -25719.36       45.946599      0.549        
     55000   298.81047      2.8294376     -27924.378      45.976261      0.55         
     55100   294.95921      2.6871004     -26519.619      46.005923      0.551        
     55200   295.21751      3.0057405     -29664.353      46.035585      0.552        
     55300   306.47516      3.1774994     -31359.481      46.065247      0.553        
     55400   302.31645      2.9227669     -28845.466      46.09491       0.554        
     55500   302.17201      2.5523671     -25189.905      46.124572      0.555        
     55600   305.24239      2.9891906     -29501.017      46.154234      0.556        
     55700   299.73869      2.7998748     -27632.615      46.183896      0.557        
     55800   300.89256      2.6695746     -26346.652      46.213558      0.558        
     55900   306.42648      2.7442701     -27083.84       46.24322       0.559        
     56000   305.18395      2.8596302     -28222.355      46.272882      0.56         
     56100   300.89249      2.9418388     -29033.691      46.302544      0.561        
     56200   302.55059      3.0893928     -30489.936      46.332206      0.562        
     56300   295.26225      3.1745278     -31330.154      46.361868      0.563        
     56400   300.84879      2.9195264     -28813.486      46.391531      0.564        
     56500   293.47255      3.3071145     -32638.683      46.421193      0.565        
     56600   301.19351      3.2327556     -31904.817      46.450855      0.566        
     56700   297.51033      3.1904502     -31487.295      46.480517      0.567        
     56800   298.32928      3.4426615     -33976.427      46.510179      0.568        
     56900   296.2318       3.4296419     -33847.933      46.539841      0.569        
     57000   301.27341      3.3091926     -32659.191      46.569503      0.57         
     57100   301.0408       3.2968769     -32537.645      46.599165      0.571        
     57200   297.75371      3.2485561     -32060.756      46.628827      0.572        
     57300   295.9281       3.1900198     -31483.047      46.658489      0.573        
     57400   295.80515      3.4486742     -34035.768      46.688152      0.574        
     57500   305.18103      3.0078599     -29685.269      46.717814      0.575        
     57600   301.78612      3.1828163     -31411.955      46.747476      0.576        
     57700   302.69371      3.4776545     -34321.781      46.777138      0.577        
     57800   299.66768      3.3921254     -33477.675      46.8068        0.578        
     57900   297.79594      3.5148824     -34689.192      46.836462      0.579        
     58000   301.32794      3.5984333     -35513.776      46.866124      0.58         
     58100   305.46603      3.4432436     -33982.172      46.895786      0.581        
     58200   305.25742      3.4927807     -34471.066      46.925448      0.582        
     58300   301.75491      3.2608786     -32182.369      46.955111      0.583        
     58400   296.59385      3.3177197     -32743.348      46.984773      0.584        
     58500   296.54005      3.2948952     -32518.088      47.014435      0.585        
     58600   296.83761      3.36005       -33161.115      47.044097      0.586        
     58700   297.82924      3.6846746     -36364.911      47.073759      0.587        
     58800   300.07198      3.5946994     -35476.924      47.103421      0.588        
     58900   301.51649      3.5626017     -35160.145      47.133083      0.589        
     59000   301.46817      3.6668368     -36188.866      47.162745      0.59         
     59100   301.02317      3.5545022     -35080.209      47.192407      0.591        
     59200   298.57139      3.6879496     -36397.233      47.222069      0.592        
     59300   295.72849      3.679603      -36314.859      47.251732      0.593        
     59400   300.52807      3.8298807     -37797.984      47.281394      0.594        
     59500   296.85358      3.8649431     -38144.023      47.311056      0.595        
     59600   298.99687      3.4512655     -34061.342      47.340718      0.596        
     59700   298.49178      3.6597638     -36119.061      47.37038       0.597        
     59800   297.19346      3.931858      -38804.421      47.400042      0.598        
     59900   302.66398      3.5433742     -34970.385      47.429704      0.599        
     60000   297.81717      3.9428137     -38912.546      47.459366      0.6          
     60100   293.7175       3.6800224     -36318.998      47.489028      0.601        
     60200   301.40115      3.6995195     -36511.419      47.518691      0.602        
     60300   299.10269      3.8994364     -38484.445      47.548353      0.603        
     60400   295.36722      3.7855249     -37360.226      47.578015      0.604        
     60500   295.37218      3.9371138     -38856.292      47.607677      0.605        
     60600   304.46976      4.0030535     -39507.066      47.637339      0.606        
     60700   303.8504       3.7307461     -36819.601      47.667001      0.607        
     60800   301.00145      3.9766279     -39246.266      47.696663      0.608        
     60900   306.78332      3.8207241     -37707.615      47.726325      0.609        
     61000   302.36928      3.8205561     -37705.957      47.755987      0.61         
     61100   301.5748       4.0588994     -40058.223      47.785649      0.611        
     61200   301.11578      4.1842826     -41295.659      47.815312      0.612        
     61300   299.7685       3.705748      -36572.889      47.844974      0.613        
     61400   300.3485       3.821141      -37711.729      47.874636      0.614        
     61500   301.87162      4.0114413     -39589.848      47.904298      0.615        
     61600   299.45501      3.9294313     -38780.472      47.93396       0.616        
     61700   306.31096      4.0524627     -39994.697      47.963622      0.617        
     61800   301.44766      4.2690307     -42132.057      47.993284      0.618        
     61900   303.06373      3.9333726     -38819.37       48.022946      0.619        
     62000   294.89688      4.1556504     -41013.08       48.052608      0.62         
     62100   300.08256      4.114567      -40607.619      48.08227       0.621        
     62200   296.87291      4.390768      -43333.511      48.111933      0.622        
     62300   303.94463      4.3528413     -42959.203      48.141595      0.623        
     62400   302.69188      4.3903105     -43328.996      48.171257      0.624        
     62500   300.2518       4.3172793     -42608.234      48.200919      0.625        
     62600   302.23855      4.1799575     -41252.973      48.230581      0.626        
     62700   297.53155      4.0636313     -40104.923      48.260243      0.627        
     62800   301.91187      4.3889939     -43316.002      48.289905      0.628        
     62900   302.88153      4.2155545     -41604.288      48.319567      0.629        
     63000   304.73702      4.2065551     -41515.471      48.349229      0.63         
     63100   299.21303      4.2784838     -42225.352      48.378892      0.631        
     63200   299.14743      4.4602565     -44019.309      48.408554      0.632        
     63300   299.82928      4.3462656     -42894.306      48.438216      0.633        
     63400   300.4494       4.544107      -44846.849      48.467878      0.634        
     63500   300.25289      4.4673935     -44089.746      48.49754       0.635        
     63600   297.37152      4.5766502     -45168.026      48.527202      0.636        
     63700   295.12481      4.3949906     -43375.185      48.556864      0.637        
     63800   302.42395      4.210693      -41556.309      48.586526      0.638        
     63900   299.66749      4.4426233     -43845.283      48.616188      0.639        
     64000   295.50484      4.739429      -46774.527      48.64585       0.64         
     64100   300.54479      4.4980813     -44392.611      48.675513      0.641        
     64200   301.43492      4.5888767     -45288.692      48.705175      0.642        
     64300   301.47728      4.7422815     -46802.68       48.734837      0.643        
     64400   303.08771      4.7038009     -46422.905      48.764499      0.644        
     64500   303.6798       4.8627901     -47992.007      48.794161      0.645        
     64600   305.17817      4.4353714     -43773.713      48.823823      0.646        
     64700   301.34208      4.8087522     -47458.694      48.853485      0.647        
     64800   304.2226       4.7855151     -47229.362      48.883147      0.648        
     64900   297.89872      4.910902      -48466.834      48.912809      0.649        
     65000   298.305        4.7393197     -46773.449      48.942471      0.65         
     65100   301.82173      4.6665988     -46055.749      48.972134      0.651        
     65200   298.44181      4.8446902     -47813.375      49.001796      0.652        
     65300   297.44854      4.7193173     -46576.04       49.031458      0.653        
     65400   306.57993      4.9738518     -49088.101      49.06112       0.654        
     65500   295.87911      4.861115      -47975.475      49.090782      0.655        
     65600   300.4858       5.0859252     -50194.179      49.120444      0.656        
     65700   299.028        5.0032321     -49378.061      49.150106      0.657        
     65800   297.06601      4.6592439     -45983.162      49.179768      0.658        
     65900   298.24514      5.1110308     -50441.952      49.20943       0.659        
     66000   306.73334      5.0966082     -50299.612      49.239093      0.66         
     66100   300.00083      4.9586232     -48937.806      49.268755      0.661        
     66200   301.17145      5.015129      -49495.475      49.298417      0.662        
     66300   298.21097      5.0419245     -49759.926      49.328079      0.663        
     66400   304.0435       5.1561999     -50887.736      49.357741      0.664        
     66500   298.05178      4.8991721     -48351.069      49.387403      0.665        
     66600   297.44522      4.8991467     -48350.818      49.417065      0.666        
     66700   299.72928      5.1670125     -50994.449      49.446727      0.667        
     66800   298.59953      4.9925237     -49272.378      49.476389      0.668        
     66900   301.6348       4.9821298     -49169.798      49.506051      0.669        
     67000   297.23262      5.1965525     -51285.985      49.535714      0.67         
     67100   293.31141      5.1498135     -50824.708      49.565376      0.671        
     67200   300.48736      5.305015      -52356.428      49.595038      0.672        
     67300   294.86896      5.3457859     -52758.805      49.6247        0.673        
     67400   301.182        5.1586477     -50911.894      49.654362      0.674        
     67500   298.08193      5.1476527     -50803.382      49.684024      0.675        
     67600   299.64047      5.2225523     -51542.584      49.713686      0.676        
     67700   299.68222      5.3781443     -53078.157      49.743348      0.677        
     67800   301.66731      5.2382624     -51697.631      49.77301       0.678        
     67900   294.2803       5.3214629     -52518.755      49.802673      0.679        
     68000   300.22868      5.5869699     -55139.106      49.832335      0.68         
     68100   294.91128      5.1449526     -50776.734      49.861997      0.681        
     68200   294.9576       5.3366425     -52668.567      49.891659      0.682        
     68300   303.45538      5.5655645     -54927.851      49.921321      0.683        
     68400   302.55419      5.5017023     -54297.58       49.950983      0.684        
     68500   306.78876      5.498077      -54261.801      49.980645      0.685        
     68600   303.96714      5.5037418     -54317.709      50.010307      0.686        
     68700   297.90954      5.7418683     -56667.834      50.039969      0.687        
     68800   299.14382      5.6809138     -56066.26       50.069631      0.688        
     68900   301.37053      5.6737152     -55995.215      50.099294      0.689        
     69000   295.9958       5.6370489     -55633.347      50.128956      0.69         
     69100   298.18724      5.5722223     -54993.558      50.158618      0.691        
     69200   294.76712      6.088302      -60086.869      50.18828       0.692        
     69300   300.43668      5.6056953     -55323.911      50.217942      0.693        
     69400   299.80454      5.5157068     -54435.794      50.247604      0.694        
     69500   302.23292      5.7314319     -56564.834      50.277266      0.695        
     69600   300.22655      5.6041892     -55309.047      50.306928      0.696        
     69700   300.49003      5.6025032     -55292.408      50.33659       0.697        
     69800   301.88211      5.8191139     -57430.189      50.366252      0.698        
     69900   302.44153      5.9664708     -58884.488      50.395915      0.699        
     70000   300.74183      5.7598284     -56845.086      50.425577      0.7          
     70100   304.04556      5.9086504     -58313.846      50.455239      0.701        
     70200   303.29103      5.9166859     -58393.149      50.484901      0.702        
     70300   298.06523      6.0061112     -59275.709      50.514563      0.703        
     70400   300.18955      5.9930784     -59147.086      50.544225      0.704        
     70500   301.05961      6.1077662     -60278.966      50.573887      0.705        
     70600   300.84589      5.9776702     -58995.018      50.603549      0.706        
     70700   302.74968      6.1382884     -60580.196      50.633211      0.707        
     70800   304.20677      5.8743689     -57975.514      50.662874      0.708        
     70900   294.28294      6.3293312     -62465.643      50.692536      0.709        
     71000   300.08351      6.4356857     -63515.279      50.722198      0.71         
     71100   304.46155      6.3067185     -62242.472      50.75186       0.711        
     71200   296.97814      6.311808      -62292.701      50.781522      0.712        
     71300   307.28978      6.0883462     -60087.306      50.811184      0.713        
     71400   296.74623      6.0941843     -60144.923      50.840846      0.714        
     71500   292.91879      6.470911      -63862.927      50.870508      0.715        
     71600   298.16442      6.3507005     -62676.54       50.90017       0.716        
     71700   299.08733      6.3731961     -62898.556      50.929832      0.717        
     71800   299.49051      6.3413441     -62584.2        50.959495      0.718        
     71900   295.9971       6.3566825     -62735.579      50.989157      0.719        
     72000   300.06127      6.4688735     -63842.818      51.018819      0.72         
     72100   304.199        6.2935068     -62112.083      51.048481      0.721        
     72200   297.49448      6.2878619     -62056.372      51.078143      0.722        
     72300   307.03064      6.5911119     -65049.217      51.107805      0.723        
     72400   301.0827       6.5419366     -64563.895      51.137467      0.724        
     72500   301.97584      6.3872956     -63037.706      51.167129      0.725        
     72600   301.12916      6.3926392     -63090.443      51.196791      0.726        
     72700   302.19993      6.4960551     -64111.079      51.226453      0.727        
     72800   299.73009      6.5575198     -64717.688      51.256116      0.728        
     72900   300.0802       6.5050885     -64200.232      51.285778      0.729        
     73000   299.95735      6.5705677     -64846.461      51.31544       0.73         
     73100   295.19245      6.7090918     -66213.588      51.345102      0.731        
     73200   296.40158      6.4949795     -64100.464      51.374764      0.732        
     73300   298.83415      6.3581379     -62749.942      51.404426      0.733        
     73400   300.46043      6.733325      -66452.751      51.434088      0.734        
     73500   302.82461      6.9595351     -68685.271      51.46375       0.735        
     73600   302.57456      6.8372753     -67478.661      51.493412      0.736        
     73700   297.36707      6.5931327     -65069.161      51.523075      0.737        
     73800   298.50847      6.8240301     -67347.941      51.552737      0.738        
     73900   299.59743      6.5566733     -64709.334      51.582399      0.739        
     74000   300.85077      6.7962373     -67073.647      51.612061      0.74         
     74100   303.55114      7.1033641     -70104.753      51.641723      0.741        
     74200   300.68202      7.1531322     -70595.926      51.671385      0.742        
     74300   296.27065      7.3481438     -72520.541      51.701047      0.743        
     74400   300.60689      7.2757474     -71806.044      51.730709      0.744        
     74500   299.62706      7.0260544     -69341.765      51.760371      0.745        
     74600   296.44021      6.920794      -68302.926      51.790033      0.746        
     74700   296.09335      7.2552655     -71603.903      51.819696      0.747        
     74800   305.47317      7.1472754     -70538.123      51.849358      0.748        
     74900   302.6648       6.8755701     -67856.601      51.87902       0.749        
     75000   304.00114      6.7096429     -66219.027      51.908682      0.75         
     75100   296.03985      7.1831467     -70892.146      51.938344      0.751        
     75200   301.21795      7.1596725     -70660.474      51.968006      0.752        
     75300   299.60074      7.03747       -69454.429      51.997668      0.753        
     75400   298.8771       7.48997       -73920.256      52.02733       0.754        
     75500   298.33247      7.3243225     -72285.443      52.056992      0.755        
     75600   301.04245      7.4350233     -73377.975      52.086655      0.756        
     75700   302.84731      7.1797958     -70859.075      52.116317      0.757        
     75800   299.24017      7.4440764     -73467.322      52.145979      0.758        
     75900   301.63825      7.6613104     -75611.255      52.175641      0.759        
     76000   303.44471      7.5767858     -74777.062      52.205303      0.76         
     76100   300.96364      7.2231085     -71286.538      52.234965      0.761        
     76200   300.12578      7.3745011     -72780.667      52.264627      0.762        
     76300   293.55159      7.642334      -75423.973      52.294289      0.763        
     76400   308.12844      7.6571605     -75570.298      52.323951      0.764        
     76500   298.96127      7.6696307     -75693.369      52.353613      0.765        
     76600   304.26584      7.7881212     -76862.78       52.383276      0.766        
     76700   293.63971      7.7545473     -76531.432      52.412938      0.767        
     76800   296.77225      7.4673343     -73696.86       52.4426        0.768        
     76900   300.07315      8.0154621     -79106.46       52.472262      0.769        
     77000   301.72471      7.8295161     -77271.316      52.501924      0.77         
     77100   299.56791      8.1379757     -80315.575      52.531586      0.771        
     77200   300.83967      7.8117391     -77095.871      52.561248      0.772        
     77300   303.48517      7.9201265     -78165.571      52.59091       0.773        
     77400   300.48924      8.0893526     -79835.703      52.620572      0.774        
     77500   299.28852      7.71249       -76116.358      52.650234      0.775        
     77600   296.72816      8.237419      -81297.005      52.679897      0.776        
     77700   301.06759      8.3031026     -81945.251      52.709559      0.777        
     77800   295.99871      8.1477131     -80411.676      52.739221      0.778        
     77900   301.99652      8.1117671     -80056.917      52.768883      0.779        
     78000   303.25051      8.4577969     -83471.965      52.798545      0.78         
     78100   297.86515      7.9700627     -78658.403      52.828207      0.781        
     78200   302.57298      8.3139975     -82052.776      52.857869      0.782        
     78300   298.97027      8.1740022     -80671.13       52.887531      0.783        
     78400   300.25518      8.2811401     -81728.498      52.917193      0.784        
     78500   302.64656      8.2413621     -81335.92       52.946856      0.785        
     78600   299.13761      8.2378321     -81301.082      52.976518      0.786        
     78700   301.79778      8.4483837     -83379.065      53.00618       0.787        
     78800   301.51512      8.4471651     -83367.038      53.035842      0.788        
     78900   296.7126       8.2242619     -81167.155      53.065504      0.789        
     79000   295.94833      8.3467095     -82375.619      53.095166      0.79         
     79100   296.6584       8.422757      -83126.149      53.124828      0.791        
     79200   301.55225      8.6928265     -85791.527      53.15449       0.792        
     79300   305.63727      8.3193578     -82105.677      53.184152      0.793        
     79400   295.23911      8.6356432     -85227.172      53.213814      0.794        
     79500   301.42872      8.9926633     -88750.686      53.243477      0.795        
     79600   297.59437      8.7371657     -86229.121      53.273139      0.796        
     79700   297.87304      8.5795817     -84673.888      53.302801      0.797        
     79800   305.20597      8.7172141     -86032.214      53.332463      0.798        
     79900   300.85739      8.7165673     -86025.831      53.362125      0.799        
     80000   299.56116      8.6934959     -85798.134      53.391787      0.8          
     80100   297.80028      8.6471175     -85340.414      53.421449      0.801        
     80200   298.85272      8.5135513     -84022.219      53.451111      0.802        
     80300   301.10532      8.6771536     -85636.847      53.480773      0.803        
     80400   298.03125      8.6360193     -85230.883      53.510436      0.804        
     80500   298.01673      8.8439441     -87282.942      53.540098      0.805        
     80600   296.89926      8.7900132     -86750.685      53.56976       0.806        
     80700   299.16662      8.6829572     -85694.125      53.599422      0.807        
     80800   302.08655      8.89836       -87819.985      53.629084      0.808        
     80900   304.30468      9.0524492     -89340.728      53.658746      0.809        
     81000   297.91385      8.8984203     -87820.58       53.688408      0.81         
     81100   298.57241      9.0370281     -89188.533      53.71807       0.811        
     81200   301.36574      8.9615115     -88443.242      53.747732      0.812        
     81300   298.21537      8.9969209     -88792.705      53.777394      0.813        
     81400   297.71059      9.2056411     -90852.614      53.807057      0.814        
     81500   299.06071      9.3225585     -92006.499      53.836719      0.815        
     81600   296.56344      9.2639321     -91427.901      53.866381      0.816        
     81700   301.56059      8.9335112     -88166.901      53.896043      0.817        
     81800   300.13332      9.040786      -89225.62       53.925705      0.818        
     81900   298.4907       9.0239111     -89059.078      53.955367      0.819        
     82000   296.80976      9.3019458     -91803.067      53.985029      0.82         
     82100   299.73191      9.2380665     -91172.627      54.014691      0.821        
     82200   295.44164      9.2753265     -91540.355      54.044353      0.822        
     82300   301.93724      9.5059707     -93816.637      54.074015      0.823        
     82400   302.2653       9.5295307     -94049.155      54.103678      0.824        
     82500   299.19916      9.4717617     -93479.02       54.13334       0.825        
     82600   297.35884      9.0964821     -89775.298      54.163002      0.826        
     82700   301.1109       9.2209879     -91004.075      54.192664      0.827        
     82800   295.17245      9.5533567     -94284.3        54.222326      0.828        
     82900   302.30686      9.6251695     -94993.037      54.251988      0.829        
     83000   294.84942      9.4624956     -93387.571      54.28165       0.83         
     83100   302.96627      9.5377214     -94129.991      54.311312      0.831        
     83200   302.31618      9.6402496     -95141.866      54.340974      0.832        
     83300   298.28526      9.6001244     -94745.862      54.370637      0.833        
     83400   300.10536      9.766815      -96390.969      54.400299      0.834        
     83500   299.45944      9.6996918     -95728.515      54.429961      0.835        
     83600   302.0562       9.6730721     -95465.799      54.459623      0.836        
     83700   296.53326      9.7580124     -96304.095      54.489285      0.837        
     83800   298.96223      9.922892      -97931.33       54.518947      0.838        
     83900   299.50615      9.6088867     -94832.339      54.548609      0.839        
     84000   305.77664      9.6971922     -95703.846      54.578271      0.84         
     84100   305.17207      9.8289168     -97003.867      54.607933      0.841        
     84200   303.54931      9.8534645     -97246.134      54.637595      0.842        
     84300   301.07589      9.8700917     -97410.232      54.667258      0.843        
     84400   301.3726       9.8403299     -97116.506      54.69692       0.844        
     84500   302.62687      10.041619     -99103.077      54.726582      0.845        
     84600   301.86722      10.171111     -100381.06      54.756244      0.846        
     84700   292.8751       10.039316     -99080.344      54.785906      0.847        
     84800   308.04368      10.035758     -99045.233      54.815568      0.848        
     84900   302.64783      10.199107     -100657.36      54.84523       0.849        
     85000   300.93692      10.340712     -102054.89      54.874892      0.85         
     85100   299.12334      10.195919     -100625.9       54.904554      0.851        
     85200   305.32209      10.372523     -102368.85      54.934216      0.852        
     85300   295.86675      10.14149      -100088.72      54.963879      0.853        
     85400   299.08821      10.218398     -100847.75      54.993541      0.854        
     85500   298.12029      10.229373     -100956.06      55.023203      0.855        
     85600   299.92043      10.416421     -102802.08      55.052865      0.856        
     85700   303.37332      10.373585     -102379.32      55.082527      0.857        
     85800   301.96652      10.154661     -100218.71      55.112189      0.858        
     85900   299.07616      10.530023     -103923.24      55.141851      0.859        
     86000   299.36112      10.36643      -102308.71      55.171513      0.86         
     86100   299.49936      10.620832     -104819.46      55.201175      0.861        
     86200   300.34435      10.581545     -104431.73      55.230838      0.862        
     86300   295.63037      10.694851     -105549.97      55.2605        0.863        
     86400   299.1056       10.205947     -100724.87      55.290162      0.864        
     86500   304.18154      10.722006     -105817.97      55.319824      0.865        
     86600   301.75439      10.365401     -102298.55      55.349486      0.866        
     86700   294.69999      10.510762     -103733.16      55.379148      0.867        
     86800   291.60237      10.722984     -105827.62      55.40881       0.868        
     86900   300.69126      10.665494     -105260.24      55.438472      0.869        
     87000   302.27483      11.037844     -108935.05      55.468134      0.87         
     87100   301.02993      10.867836     -107257.21      55.497796      0.871        
     87200   301.41151      10.692935     -105531.07      55.527459      0.872        
     87300   300.22715      10.678811     -105391.67      55.557121      0.873        
     87400   299.09388      11.128154     -109826.34      55.586783      0.874        
     87500   302.54884      10.886383     -107440.25      55.616445      0.875        
     87600   302.68287      11.011639     -108676.42      55.646107      0.876        
     87700   299.04285      10.846237     -107044.04      55.675769      0.877        
     87800   301.53189      11.145695     -109999.46      55.705431      0.878        
     87900   302.61272      11.327189     -111790.66      55.735093      0.879        
     88000   304.43491      11.205681     -110591.47      55.764755      0.88         
     88100   298.6923       11.005425     -108615.1       55.794418      0.881        
     88200   297.61403      11.004194     -108602.96      55.82408       0.882        
     88300   304.39187      11.34105      -111927.46      55.853742      0.883        
     88400   304.39353      11.085281     -109403.22      55.883404      0.884        
     88500   300.61961      11.115652     -109702.96      55.913066      0.885        
     88600   301.45771      11.36303      -112144.39      55.942728      0.886        
     88700   307.19622      11.222013     -110752.66      55.97239       0.887        
     88800   295.96445      11.415671     -112663.91      56.002052      0.888        
     88900   296.00656      11.357438     -112089.19      56.031714      0.889        
     89000   297.66545      11.54729      -113962.9       56.061376      0.89         
     89100   300.54134      11.43955      -112899.58      56.091039      0.891        
     89200   301.549        11.524246     -113735.46      56.120701      0.892        
     89300   304.84195      11.676768     -115240.74      56.150363      0.893        
     89400   306.12552      11.480162     -113300.39      56.180025      0.894        
     89500   300.7459       11.398213     -112491.62      56.209687      0.895        
     89600   297.44012      11.312821     -111648.87      56.239349      0.896        
     89700   298.87627      11.500014     -113496.31      56.269011      0.897        
     89800   295.01075      11.739669     -115861.52      56.298673      0.898        
     89900   297.26306      11.719285     -115660.35      56.328335      0.899        
     90000   298.27997      11.720189     -115669.27      56.357997      0.9          
     90100   303.50291      11.776536     -116225.38      56.38766       0.901        
     90200   294.97988      12.081265     -119232.81      56.417322      0.902        
     90300   306.24317      11.945484     -117892.76      56.446984      0.903        
     90400   298.77178      11.868122     -117129.25      56.476646      0.904        
     90500   302.36333      11.82281      -116682.06      56.506308      0.905        
     90600   300.42159      12.151741     -119928.36      56.53597       0.906        
     90700   296.90139      12.034186     -118768.18      56.565632      0.907        
     90800   300.64004      12.348149     -121866.75      56.595294      0.908        
     90900   297.75395      12.12281      -119642.84      56.624956      0.909        
     91000   298.59066      12.039048     -118816.16      56.654619      0.91         
     91100   297.51291      12.13548      -119767.87      56.684281      0.911        
     91200   300.62295      11.981418     -118247.4       56.713943      0.912        
     91300   302.60151      12.222162     -120623.36      56.743605      0.913        
     91400   302.41186      12.464529     -123015.33      56.773267      0.914        
     91500   297.36083      12.211725     -120520.36      56.802929      0.915        
     91600   304.72545      12.314093     -121530.65      56.832591      0.916        
     91700   299.47687      12.566514     -124021.85      56.862253      0.917        
     91800   301.57211      12.457985     -122950.76      56.891915      0.918        
     91900   301.59865      12.434138     -122715.4       56.921577      0.919        
     92000   305.52124      12.564792     -124004.86      56.95124       0.92         
     92100   302.09132      12.564189     -123998.9       56.980902      0.921        
     92200   295.31558      12.427463     -122649.52      57.010564      0.922        
     92300   302.68286      12.902085     -127333.68      57.040226      0.923        
     92400   303.69764      12.620542     -124555.07      57.069888      0.924        
     92500   302.1483       12.432757     -122701.78      57.09955       0.925        
     92600   299.62424      12.652429     -124869.76      57.129212      0.926        
     92700   298.49264      12.444318     -122815.87      57.158874      0.927        
     92800   300.73234      12.641939     -124766.24      57.188536      0.928        
     92900   303.64923      12.794279     -126269.72      57.218198      0.929        
     93000   294.52458      12.818113     -126504.94      57.247861      0.93         
     93100   300.77984      13.064224     -128933.87      57.277523      0.931        
     93200   305.0497       13.344501     -131699.99      57.307185      0.932        
     93300   305.50395      13.25823      -130848.56      57.336847      0.933        
     93400   304.94526      12.955527     -127861.11      57.366509      0.934        
     93500   300.02295      13.125123     -129534.89      57.396171      0.935        
     93600   297.98584      12.975594     -128059.15      57.425833      0.936        
     93700   292.00445      12.86873      -127004.49      57.455495      0.937        
     93800   297.30836      13.229182     -130561.88      57.485157      0.938        
     93900   301.47506      13.044816     -128742.33      57.51482       0.939        
     94000   301.91096      12.899455     -127307.73      57.544482      0.94         
     94100   296.05217      13.286109     -131123.7       57.574144      0.941        
     94200   298.68295      13.143654     -129717.78      57.603806      0.942        
     94300   295.43117      13.166708     -129945.3       57.633468      0.943        
     94400   291.67106      13.277815     -131041.84      57.66313       0.944        
     94500   301.03146      13.349284     -131747.19      57.692792      0.945        
     94600   300.45853      13.602522     -134246.45      57.722454      0.946        
     94700   303.70505      13.812024     -136314.08      57.752116      0.947        
     94800   303.08497      13.385505     -132104.66      57.781778      0.948        
     94900   298.244        13.401678     -132264.28      57.811441      0.949        
     95000   299.032        13.54406      -133669.48      57.841103      0.95         
     95100   299.96321      13.691351     -135123.13      57.870765      0.951        
     95200   300.55091      13.852093     -136709.53      57.900427      0.952        
     95300   298.10243      13.497922     -133214.14      57.930089      0.953        
     95400   304.96595      13.972452     -137897.38      57.959751      0.954        
     95500   302.24207      13.94543      -137630.69      57.989413      0.955        
     95600   299.7819       13.952047     -137696         58.019075      0.956        
     95700   303.915        13.901796     -137200.06      58.048737      0.957        
     95800   298.9601       13.951101     -137686.66      58.0784        0.958        
     95900   300.72467      13.645629     -134671.89      58.108062      0.959        
     96000   298.44736      13.711181     -135318.83      58.137724      0.96         
     96100   301.76188      14.057675     -138738.47      58.167386      0.961        
     96200   301.48687      14.096576     -139122.39      58.197048      0.962        
     96300   298.08487      13.96427      -137816.63      58.22671       0.963        
     96400   301.21216      13.967666     -137850.15      58.256372      0.964        
     96500   301.33597      14.282494     -140957.26      58.286034      0.965        
     96600   299.23586      14.180471     -139950.36      58.315696      0.966        
     96700   300.75997      14.133002     -139481.88      58.345358      0.967        
     96800   302.84227      14.373999     -141860.35      58.375021      0.968        
     96900   301.21135      14.440615     -142517.79      58.404683      0.969        
     97000   303.78121      14.408059     -142196.49      58.434345      0.97         
     97100   305.25155      14.231836     -140457.3       58.464007      0.971        
     97200   297.51769      14.586586     -143958.41      58.493669      0.972        
     97300   308.45771      14.362485     -141746.7       58.523331      0.973        
     97400   296.23136      14.411043     -142225.93      58.552993      0.974        
     97500   300.75505      14.421486     -142329         58.582655      0.975        
     97600   299.53273      14.641318     -144498.58      58.612317      0.976        
     97700   301.03804      14.539736     -143496.04      58.641979      0.977        
     97800   302.69421      14.634719     -144433.44      58.671642      0.978        
     97900   302.2232       14.624366     -144331.27      58.701304      0.979        
     98000   304.69662      14.857271     -146629.87      58.730966      0.98         
     98100   293.38479      14.961867     -147662.15      58.760628      0.981        
     98200   303.42851      14.99703      -148009.18      58.79029       0.982        
     98300   305.7244       14.901363     -147065.02      58.819952      0.983        
     98400   303.13877      14.618164     -144270.06      58.849614      0.984        
     98500   295.33213      14.848686     -146545.13      58.879276      0.985        
     98600   301.13105      15.111082     -149134.79      58.908938      0.986        
     98700   298.89113      14.992961     -147969.02      58.938601      0.987        
     98800   299.33692      14.972951     -147771.54      58.968263      0.988        
     98900   295.66757      14.855068     -146608.12      58.997925      0.989        
     99000   302.09183      15.14478      -149467.36      59.027587      0.99         
     99100   302.96239      14.936        -147406.86      59.057249      0.991        
     99200   294.7802       15.076275     -148791.26      59.086911      0.992        
     99300   296.49045      15.128741     -149309.06      59.116573      0.993        
     99400   300.46473      15.003903     -148077.01      59.146235      0.994        
     99500   297.7555       15.290107     -150901.62      59.175897      0.995        
     99600   299.48915      15.205067     -150062.34      59.205559      0.996        
     99700   302.57362      15.481849     -152793.97      59.235222      0.997        
     99800   305.33505      15.650564     -154459.05      59.264884      0.998        
     99900   303.63893      15.62172      -154174.39      59.294546      0.999        
    100000   299.81703      15.415995     -152144.05      59.324208      1            
Loop time of 546.825 on 4 procs for 100000 steps with 2988 atoms

Performance: 15.800 ns/day, 1.519 hours/ns, 182.874 timesteps/s
310.9% CPU use with 1 MPI tasks x 4 OpenMP threads

MPI task timing breakdown:
Section |  min time  |  avg time  |  max time  |%varavg| %total
---------------------------------------------------------------
Pair    | 369.03     | 369.03     | 369.03     |   0.0 | 67.49
Bond    | 39.659     | 39.659     | 39.659     |   0.0 |  7.25
Neigh   | 61.766     | 61.766     | 61.766     |   0.0 | 11.30
Comm    | 10.202     | 10.202     | 10.202     |   0.0 |  1.87
Output  | 0.29368    | 0.29368    | 0.29368    |   0.0 |  0.05
Modify  | 64.743     | 64.743     | 64.743     |   0.0 | 11.84
Other   |            | 1.136      |            |       |  0.21

Nlocal:           2988 ave        2988 max        2988 min
Histogram: 1 0 0 0 0 0 0 0 0 0
Nghost:          13697 ave       13697 max       13697 min
Histogram: 1 0 0 0 0 0 0 0 0 0
Neighs:         998279 ave      998279 max      998279 min
Histogram: 1 0 0 0 0 0 0 0 0 0

Total # of neighbors = 998279
Ave neighs/atom = 334.09605
Ave special neighs/atom = 12.156627
Neighbor list builds = 4802
Dangerous builds = 0
unfix 1
unfix 2
unfix def1

print "All done"
All done
Total wall time: 0:09:07
