LAMMPS (23 Jun 2022 - Update 1)
OMP_NUM_THREADS environment is not set. Defaulting to 1 thread. (src/comm.cpp:98)
  using 1 OpenMP thread(s) per MPI task
Loaded 1 plugins from C:\Users\HP\AppData\Local\LAMMPS 64-bit 23Jun2022\plugins
package omp 0
using multi-threaded neighbor list subroutines
package omp 4
set 4 OpenMP thread(s) per MPI task
using multi-threaded neighbor list subroutines
units			real
dimension		3
processors		* * *
boundary		p p p
atom_style		full
pair_style		lj/cut 10.0
bond_style		harmonic
angle_style 	harmonic
read_data		PVA4_equilibrated.data
Reading data file ...
  orthogonal box = (30.614546 29.037549 30.45605) to (59.769448 58.192451 59.610952)
  1 by 1 by 1 MPI processor grid
  reading atoms ...
  2808 atoms
  reading velocities ...
  2808 velocities
  scanning bonds ...
  3 = max bonds/atom
  scanning angles ...
  6 = max angles/atom
  reading bonds ...
  2804 bonds
  reading angles ...
  5200 angles
Finding 1-2 1-3 1-4 neighbors ...
  special bond factors lj:    0        0        0       
  special bond factors coul:  0        0        0       
     4 = max # of 1-2 neighbors
     7 = max # of 1-3 neighbors
    14 = max # of 1-4 neighbors
    18 = max # of special neighbors
  special bonds CPU = 0.003 seconds
  read_data CPU = 0.060 seconds
variable simname index ssc_not_linked_latest_1ns
variable tmp equal "lx"
variable L0 equal ${tmp}
variable L0 equal 29.1549029064426
variable strain equal "(lx - v_L0)/v_L0"
variable p1 equal "v_strain"
variable p2 equal "-pxx/10000*1.01325"
variable p3 equal "-pyy/10000*1.01325"
variable p4 equal "-pzz/10000*1.01325"
variable p5 equal "lx"
variable p6 equal "ly"
variable p7 equal "lz"
variable p8 equal "temp"
fix		1 all npt temp 300 300 50 y 1 1 100 z 1 1 100
fix		2 all deform 1 x erate 1e-6 units box remap x
fix        3 all ave/time 1 100 100 v_p2 v_p3
variable avg_stress equal f_3[1]
fix def1 all print 100 "${p1} ${p2} ${avg_stress}" file ${simname}.txt screen no
fix def1 all print 100 "${p1} ${p2} ${avg_stress}" file ssc_not_linked_latest_1ns.txt screen no
thermo_style	custom step temp v_p2 v_avg_stress lx ly lz vol v_strain pxx
thermo          100
timestep	1
run		1000000
Generated 36 of 36 mixed pair_coeff terms from geometric mixing rule
Last active /omp style is angle_style harmonic/omp
Neighbor list info ...
  update every 1 steps, delay 10 steps, check yes
  max neighbors/atom: 2000, page size: 100000
  master list distance cutoff = 12
  ghost atom cutoff = 12
  binsize = 6, bins = 5 5 5
  1 neighbor lists, perpetual/occasional/extra = 1 0 0
  (1) pair lj/cut/omp, perpetual
      attributes: half, newton on, omp
      pair build: half/bin/newton/omp
      stencil: half/bin/3d
      bin: standard
Per MPI rank memory allocation (min/avg/max) = 25.31 | 25.31 | 25.31 Mbytes
   Step          Temp           v_p2       v_avg_stress        Lx             Ly             Lz           Volume        v_strain         Pxx      
         0   306.92569     -0.032929718    0              29.154903      29.154903      29.154903      24781.911     -1.2185647e-16  324.99104    
       100   296.22345     -0.029272964   -0.018878157    29.157818      29.299407      29.297503      25029.056      0.0001         288.90169    
       200   302.97223      0.10039828     0.042512729    29.160734      29.316094      29.427671      25157.092      0.0002        -990.85397    
       300   303.52251     -0.2858608      0.029217391    29.163649      29.157779      29.248143      24871.078      0.0003         2821.2268    
       400   295.38583      0.47965958    -0.036583668    29.166565      29.533012      28.843991      24845.537      0.0004        -4733.872     
       500   305.39825      0.1527187      0.11848908     29.16948       29.644713      28.954525      25037.582      0.0005        -1507.2164    
       600   294.95115      0.070545091   -0.051379824    29.172396      29.541142      29.146655      25118.176      0.0006        -696.22592    
       700   299.02887      0.049221821    0.078271589    29.175311      29.747702      29.09395       25250.594      0.0007        -485.78161    
       800   305.56592     -0.31750362    -0.024202104    29.178227      29.895676      28.607645      24954.529      0.0008         3133.5171    
       900   301.55008     -0.35663552    -0.019064423    29.181142      29.736216      28.579319      24799.325      0.0009         3519.7189    
      1000   295.67391     -0.10605561    -0.037100657    29.184058      29.557107      29.032023      25042.916      0.001          1046.6875    
      1100   302.47985     -0.21768154     0.00012708391  29.186973      29.514768      29.162014      25121.521      0.0011         2148.3497    
      1200   303.24835     -0.071725429   -0.10787565     29.189889      29.746834      29.026237      25203.679      0.0012         707.87495    
      1300   291.26629     -0.12446929     0.024283822    29.192804      29.872032      28.941176      25238.106      0.0013         1228.4164    
      1400   295.34356      0.21484277     0.0090460966   29.19572       29.854324      28.78697       25091.255      0.0014        -2120.3332    
      1500   305.97034      0.2009868     -0.020061924    29.198635      29.816165      28.455908      24773.467      0.0015        -1983.5855    
      1600   307.39775      0.13412562     0.075434892    29.201551      29.982516      28.481772      24936.816      0.0016        -1323.717     
      1700   293.3363       0.14014205     0.030114006    29.204466      29.923129      28.688974      25070.979      0.0017        -1383.0945    
      1800   299.12166     -0.11822375     0.053730793    29.207382      29.781708      28.570368      24851.812      0.0018         1166.7777    
      1900   306.08881      0.041771162    0.072354481    29.210297      29.790263      28.573994      24864.587      0.0019        -412.24931    
      2000   302.2537       0.019791712   -0.0048355761   29.213213      29.960678      28.666238      25090.058      0.002         -195.32901    
      2100   305.1166      -0.02636679     0.023781153    29.216128      29.958967      28.681989      25104.915      0.0021         260.21999    
      2200   301.26759     -0.0046945953   0.043528113    29.219044      29.858734      28.751876      25084.392      0.0022         46.332054    
      2300   305.94087     -0.041355435    0.072414433    29.221959      29.869694      29.070577      25374.282      0.0023         408.14641    
      2400   301.61938     -0.047041941    0.034974418    29.224875      29.69363       28.988232      25155.774      0.0024         464.26786    
      2500   297.02297     -0.22749535    -0.0070007526   29.22779       29.710014      28.969507      25155.905      0.0025         2245.2045    
      2600   300.49295     -0.24071209    -0.084454748    29.230706      29.7231        28.964558      25165.195      0.0026         2375.6436    
      2700   311.19367     -0.24531556     0.06002055     29.233621      29.466269      28.963452      24949.284      0.0027         2421.0763    
      2800   302.3894       0.071238547   -0.09000087     29.236537      29.259127      28.947418      24762.65       0.0028        -703.06979    
      2900   298.09232      0.04843122     0.012810935    29.239452      29.139586      29.312061      24974.625      0.0029        -477.97898    
      3000   299.95642     -0.38219324    -0.1158315      29.242368      29.198715      29.310751      25026.679      0.003          3771.954     
      3100   303.59326     -0.1449228      0.049195861    29.245283      29.529101      29.153525      25176.603      0.0031         1430.2768    
      3200   296.80148     -0.13298998     0.069061523    29.248199      29.323471      29.073571      24935.201      0.0032         1312.5091    
      3300   293.53755     -0.029080682    0.06293476     29.251114      29.524453      29.117848      25146.848      0.0033         287.00402    
      3400   302.07362     -0.18705939    -0.032195103    29.25403       29.386929      29.321303      25207.116      0.0034         1846.1327    
      3500   295.21764     -0.30814922    -0.05514291     29.256945      29.259162      29.461907      25220.385      0.0035         3041.1963    
      3600   305.64433      0.034352137   -0.043275569    29.259861      29.341802      29.342158      25191.329      0.0036        -339.02923    
      3700   296.11695      0.14626272    -0.071225892    29.262776      29.348444      29.500985      25335.946      0.0037        -1443.5008    
      3800   301.40761      0.29819746     0.099082394    29.265692      29.299968      29.556347      25344.089      0.0038        -2942.9801    
      3900   308.61214     -0.027048152    0.10394053     29.268607      29.131908      29.672709      25300.446      0.0039         266.9445     
      4000   295.32129      0.052202798    0.080742409    29.271523      29.294444      29.506539      25301.65       0.004         -515.20156    
      4100   302.77969      0.11959868    -0.022059724    29.274438      29.112338      29.792698      25390.747      0.0041        -1180.3472    
      4200   299.91717     -0.05290641     0.020580875    29.277353      29.043201      29.437693      25031.108      0.0042         522.14567    
      4300   296.50189      0.34797343    -0.021952847    29.280269      29.085892      29.629311      25233.587      0.0043        -3434.2308    
      4400   299.9474       0.0080857342  -0.026269014    29.283184      29.149884      29.602087      25268.384      0.0044        -79.799993    
      4500   296.22523     -0.013374515    0.13831223     29.2861        29.15553       29.513334      25200.012      0.0045         131.9962     
      4600   295.96289      0.066597274    0.076051033    29.289015      29.177604      29.464802      25180.127      0.0046        -657.264      
      4700   310.93418      0.2657045      0.074221129    29.291931      29.224452      29.601657      25340.221      0.0047        -2622.2995    
      4800   301.55924      0.42352197     0.02695662     29.294846      29.253277      29.543217      25317.658      0.0048        -4179.8369    
      4900   297.70129      0.11894888     0.087251745    29.297762      29.487176      29.595561      25567.85       0.0049        -1173.9342    
      5000   313.10267     -0.16606853     0.014518558    29.300677      29.259201      29.489975      25282.18       0.005          1638.969     
      5100   293.93573      0.099815204    0.00080663958  29.303593      29.21931       29.428683      25197.744      0.0051        -985.09947    
      5200   299.13058     -0.24392078     0.0098539794   29.306508      29.226889      29.424352      25203.077      0.0052         2407.3109    
      5300   298.99437     -0.14419101    -0.01499491     29.309424      29.056033      29.782434      25363.185      0.0053         1423.0547    
      5400   300.13965     -0.023050881   -0.041850101    29.312339      28.976637      29.564346      25111.158      0.0054         227.49451    
      5500   306.05818     -0.18035432     0.01357068     29.315255      29.171634      29.441055      25177.221      0.0055         1779.9588    
      5600   303.73929     -0.095488915   -0.012587035    29.31817       29.18473       29.390534      25147.801      0.0056         942.40232    
      5700   296.26735      0.046402094    0.019159005    29.321086      29.22547       29.580073      25347.831      0.0057        -457.95306    
      5800   299.01525      0.16024187     0.083182243    29.324001      29.183479      29.617056      25345.577      0.0058        -1581.4643    
      5900   292.28551      0.1794704      0.073924995    29.326917      29.101262      29.636288      25293.098      0.0059        -1771.2351    
      6000   301.28176      0.29987972    -0.017836575    29.329832      29.14778       29.480617      25202.964      0.006         -2959.5828    
      6100   297.39422      0.39781647     0.0062934743   29.332748      29.175299      29.552315      25290.626      0.0061        -3926.1433    
      6200   299.69881      0.086434209    0.024929561    29.335663      29.11107       29.620779      25295.924      0.0062        -853.03932    
      6300   296.14952     -0.0033434183  -0.031321233    29.338579      28.8801        29.812399      25260.078      0.0063         32.996974    
      6400   301.99226     -0.0028493205   0.044393742    29.341494      28.826472      29.655896      25083.305      0.0064         28.120607    
      6500   299.90201     -0.53997865    -0.044915497    29.34441       28.818301      29.609055      25039.076      0.0065         5329.1749    
      6600   294.90092      0.077521267   -0.0044080923   29.347325      29.01113       29.640672      25236.04       0.0066        -765.07542    
      6700   304.7872      -0.26415652    -0.088648912    29.350241      28.956883      29.687364      25231.038      0.0067         2607.0222    
      6800   292.87576     -0.14591669    -0.0045886696   29.353156      28.737575      29.861204      25189.077      0.0068         1440.0858    
      6900   292.52357     -0.12437287     0.013943367    29.356072      28.679599      29.690063      24996.669      0.0069         1227.4648    
      7000   301.6423      -0.38316342    -0.072463334    29.358987      28.813077      29.683436      25109.894      0.007          3781.529     
      7100   305.84821     -0.37821018    -0.066164697    29.361903      29.089078      29.611127      25291.18       0.0071         3732.6442    
      7200   291.89353     -0.19649907     0.066741198    29.364818      29.085009      29.465818      25166.048      0.0072         1939.2951    
      7300   297.09374     -0.086510654   -0.019783213    29.367734      29.163287      29.346386      25133.995      0.0073         853.79377    
      7400   301.16708     -0.13996661     0.076562155    29.370649      29.148842      29.569114      25314.721      0.0074         1381.363     
      7500   301.2236      -0.063487865   -0.034800877    29.373565      29.350864      29.360496      25312.843      0.0075         626.57651    
      7600   304.90215      0.29419318     0.08287651     29.37648       29.32091       29.402685      25325.859      0.0076        -2903.4609    
      7700   293.77981     -0.098046716   -0.042980707    29.379396      29.287849      29.018004      24968.811      0.0077         967.64585    
      7800   299.4906      -0.055473139   -0.092795164    29.382311      29.188038      29.232104      25069.804      0.0078         547.47731    
      7900   295.05014      0.23382262     0.070127851    29.385227      29.109479      29.32577       25084.931      0.0079        -2307.6498    
      8000   295.07928      0.11241081    -0.021138637    29.388142      29.0937        29.133398      24909.34       0.008         -1109.4084    
      8100   300.21253      0.23465494    -0.018623852    29.391058      29.219979      29.368925      25222.212      0.0081        -2315.8642    
      8200   300.26759      0.1075232      0.0512098      29.393973      29.155982      29.522371      25300.972      0.0082        -1061.1715    
      8300   294.3423       0.12686553     0.10843026     29.396889      29.160987      29.562775      25342.461      0.0083        -1252.0654    
      8400   298.94614      0.18175995     0.016336013    29.399804      28.939939      29.634716      25214.062      0.0084        -1793.8313    
      8500   300.50241     -0.19886953    -0.031275849    29.40272       29.039262      29.524601      25209.086      0.0085         1962.6897    
      8600   301.31977      0.16221793    -0.016121296    29.405635      29.021554      29.493352      25169.544      0.0086        -1600.9665    
      8700   293.52288      0.04013838     0.052557105    29.408551      29.087863      29.595697      25317.103      0.0087        -396.13501    
      8800   301.03587     -0.1783846      0.02087988     29.411466      28.904186      29.722369      25267.417      0.0088         1760.5192    
      8900   302.65757     -0.0047568746   0.0025889416   29.414382      28.962512      29.431522      25073.136      0.0089         46.946702    
      9000   285.76324      0.13136645    -0.026018789    29.417297      29.227313      29.480095      25346.649      0.009         -1296.4861    
      9100   308.70033     -0.077582528    0.043521471    29.420213      29.126921      29.309814      25116.171      0.0091         765.68002    
      9200   294.11235     -0.08400821    -0.060069817    29.423128      29.156078      29.174906      25028.073      0.0092         829.09657    
      9300   300.47393      0.03540265     0.070039091    29.426044      29.271483      29.091094      25057.438      0.0093        -349.39699    
      9400   312.21055     -0.052589947    0.030353468    29.428959      29.295095      29.280962      25243.824      0.0094         519.02242    
      9500   299.85192      0.024559277   -0.013677883    29.431874      29.570606      29.143095      25363.771      0.0095        -242.38122    
      9600   300.19325      0.17348234    -0.025058206    29.43479       29.609139      28.979416      25256.685      0.0096        -1712.1376    
      9700   296.27419      0.13496358    -0.032641258    29.437705      29.521696      28.758156      24992.305      0.0097        -1331.9869    
      9800   305.53616      0.14428618     0.062136412    29.440621      29.604004      28.821274      25119.478      0.0098        -1423.9939    
      9900   295.51023      0.09071758     0.026994359    29.443536      29.585482      28.896241      25171.55       0.0099        -895.3129     
     10000   288.60355     -0.11961771     0.054676156    29.446452      29.775261      28.721378      25182.209      0.01           1180.535     
     10100   301.55066     -0.16193876     0.007969333    29.449367      29.867903      28.877709      25400.568      0.0101         1598.2113    
     10200   302.08784      0.16966335     0.092067783    29.452283      30.057331      28.505595      25234.779      0.0102        -1674.4471    
     10300   293.26829     -0.26927078    -0.011086971    29.455198      29.929038      28.759862      25353.71       0.0103         2657.496     
     10400   303.47516     -0.11707455    -0.039024096    29.458114      29.859009      28.676504      25223.569      0.0104         1155.436     
     10500   302.92359      0.27137149     0.012768012    29.461029      29.937142      28.687156      25301.47       0.0105        -2678.2284    
     10600   299.32501      0.094458414    0.047243012    29.463945      29.858586      28.775405      25315.212      0.0106        -932.23207    
     10700   307.26221      0.23936239    -0.012107823    29.46686       29.817212      28.670919      25190.832      0.0107        -2362.3231    
     10800   300.00832      0.097748408   -0.0061379986   29.469776      29.739805      28.788851      25231.28       0.0108        -964.70178    
     10900   298.44077      0.2295347      0.0622121      29.472691      29.810125      28.752556      25261.553      0.0109        -2265.3313    
     11000   308.86579     -0.16872005    -0.038483257    29.475607      29.752518      28.84187       25293.556      0.011          1665.1374    
     11100   296.52844      0.013146119   -0.013372668    29.478522      29.377563      28.954714      25074.99       0.0111        -129.74211    
     11200   295.60289     -0.059733512   -0.088966574    29.481438      29.534567      28.872758      25140.132      0.0112         589.52393    
     11300   308.20984     -0.34971181    -0.1413203      29.484353      29.567561      28.983705      25267.426      0.0113         3451.3872    
     11400   293.85965     -0.05155651    -0.062654789    29.487269      29.570292      28.848791      25154.621      0.0114         508.82319    
     11500   302.55669     -0.083674825   -0.075470288    29.490184      29.799802      28.684774      25208.227      0.0115         825.80632    
     11600   298.40351      0.093388128   -0.12760321     29.4931        29.75193       28.78703       25259.946      0.0116        -921.66917    
     11700   299.73773      0.2644789      0.034537867    29.496015      29.606231      28.943988      25275.796      0.0117        -2610.2038    
     11800   298.42127      0.033357242   -0.092129364    29.498931      29.862888      28.773994      25347.681      0.0118        -329.21038    
     11900   297.80357     -0.13617551    -0.1214175      29.501846      29.80659       28.72536       25259.629      0.0119         1343.9478    
     12000   293.04234     -0.078092529   -0.014841493    29.504762      29.94189       28.720743      25372.718      0.012          770.71334    
     12100   302.41886      0.034196595    0.031179676    29.507677      29.939754      28.928908      25557.318      0.0121        -337.49415    
     12200   299.94521     -0.1733446     -0.011505257    29.510593      29.910368      28.867994      25480.99       0.0122         1710.7782    
     12300   294.28566     -0.054474479   -0.012865748    29.513508      29.539608      28.963188      25250.614      0.0123         537.6213     
     12400   305.75529     -0.2808177     -0.0071749518   29.516424      29.55647       29.153317      25433.392      0.0124         2771.4552    
     12500   296.93335      0.1961532     -0.082827178    29.519339      29.439917      29.268169      25435.412      0.0125        -1935.8816    
     12600   294.92391      0.08638888     0.0038318907   29.522255      29.551542      29.000851      25301.159      0.0126        -852.59196    
     12700   304.87059     -0.16031316    -0.068972278    29.52517       29.530564      28.951587      25242.742      0.0127         1582.1679    
     12800   292.07014     -0.065374599   -0.072304363    29.528086      29.478536      28.969323      25216.195      0.0128         645.19713    
     12900   293.16969     -0.086212474   -0.067889201    29.531001      29.13579       29.118501      25053.822      0.0129         850.85097    
     13000   303.32237      0.13835749     0.0035791545   29.533917      29.429252      29.057745      25255.861      0.013         -1365.4822    
     13100   300.09548     -0.019343023   -0.054964026    29.536832      29.378337      29.214663      25350.82       0.0131         190.90079    
     13200   299.22073     -0.060095558   -0.040532834    29.539748      29.44111       29.048082      25262.622      0.0132         593.09705    
     13300   302.11594      0.081427453    0.067242747    29.542663      29.311703      29.231302      25312.722      0.0133        -803.62648    
     13400   297.60031     -0.43033517    -0.13174567     29.545579      29.424416      29.05476       25259.086      0.0134         4247.0779    
     13500   298.59755     -0.154445      -0.064423029    29.548494      29.629531      29.065002      25446.643      0.0135         1524.2536    
     13600   303.45305      0.017420909   -0.0012939022   29.55141       29.420947      29.066827      25271.584      0.0136        -171.93101    
     13700   300.56431     -0.20031481    -0.11964526     29.554325      29.529359      29.15759       25446.42       0.0137         1976.9535    
     13800   301.9595      -0.17137298    -0.055557168    29.557241      29.68867       29.145594      25575.701      0.0138         1691.3198    
     13900   306.84901     -0.13043007     0.044292077    29.560156      29.644995      29.086094      25488.455      0.0139         1287.2447    
     14000   301.37999      0.032401077   -0.042529976    29.563072      29.780597      28.954252      25491.494      0.014         -319.77377    
     14100   293.9137       0.034683433    0.047503939    29.565987      29.705405      28.84368       25332.528      0.0141        -342.29887    
     14200   304.6197      -0.10286969    -0.09624678     29.568903      29.938979      28.795124      25491.25       0.0142         1015.2449    
     14300   292.17061      0.08827859    -0.072610113    29.571818      29.968945      28.667591      25406.257      0.0143        -871.24195    
     14400   303.41328     -0.044574649    0.0049600914   29.574734      29.849417      28.77944       25406.16       0.0144         439.91758    
     14500   300.66308     -0.16457489    -0.012231698    29.577649      29.756779      28.907687      25442.684      0.0145         1624.2279    
     14600   295.96271     -0.23172042    -0.020671104    29.580564      29.733518      29.028036      25531.151      0.0146         2286.9028    
     14700   298.3323       0.058424688   -0.089479395    29.58348       29.855053      29.132848      25730.608      0.0147        -576.60684    
     14800   289.76185      0.063422643    0.060534413    29.586395      29.942115      29.129261      25805.007      0.0148        -625.93282    
     14900   300.32198      0.014972449   -0.018773734    29.589311      29.687991      29.279486      25720.482      0.0149        -147.76658    
     15000   298.50477     -0.21645024    -0.057778181    29.592226      29.170093      29.688501      25627.352      0.015          2136.1977    
     15100   300.05444     -0.15076335     0.0043954913   29.595142      29.276599      29.303837      25390.166      0.0151         1487.9186    
     15200   290.91585     -0.12962271     0.022491862    29.598057      29.292656      29.120319      25247.484      0.0152         1279.2767    
     15300   302.9845      -0.2438918      0.032802072    29.600973      29.335394      28.978423      25163.594      0.0153         2407.0249    
     15400   302.45161     -0.2353072     -0.01029037     29.603888      29.1888        29.218055      25247.38       0.0154         2322.3015    
     15500   295.20021      0.069635082    0.089118946    29.606804      29.142146      29.360903      25332.757      0.0155        -687.24483    
     15600   300.16362      0.21910543    -0.035628194    29.609719      29.265423      29.260498      25355.42       0.0156        -2162.4024    
     15700   297.14399      0.33299908     0.122944       29.612635      29.392638      29.502717      25678.972      0.0157        -3286.4454    
     15800   295.15751      0.2325639      0.0083104546   29.61555       29.406458      29.417926      25619.732      0.0158        -2295.2273    
     15900   307.16278      0.50476747     0.080338079    29.618466      29.151652      29.553666      25517.439      0.0159        -4981.6676    
     16000   294.92138     -0.10864832     0.054825302    29.621381      28.898697      29.520422      25270.052      0.016          1072.2756    
     16100   303.16081      0.14382351    -0.030432376    29.624297      28.919668      29.670614      25419.552      0.0161        -1419.4277    
     16200   303.62842      0.12647361     0.066546328    29.627212      29.023908      29.595393      25449.005      0.0162        -1248.1975    
     16300   297.61514     -0.017211585    0.01326147     29.630128      29.097833      29.545164      25473.029      0.0163         169.86514    
     16400   305.28664      0.17936312    -0.068742494    29.633043      29.115576      29.585257      25525.66       0.0164        -1770.1764    
     16500   293.81246      0.3022193      0.11527817     29.635959      29.080607      29.714059      25608.517      0.0165        -2982.6726    
     16600   301.41041      0.045791023    0.01726122     29.638874      28.810128      29.716072      25374.547      0.0166        -451.92226    
     16700   306.50269     -0.20846673     0.02282998     29.64179       28.854939      29.509301      25239.66       0.0167         2057.4067    
     16800   312.21031      0.062866529   -0.041087152    29.644705      29.20022       29.486635      25524.573      0.0168        -620.4444     
     16900   297.77854     -0.16553699     0.014922851    29.647621      29.268729      29.360272      25477.323      0.0169         1633.7231    
     17000   304.40006     -0.28845129    -0.023934972    29.650536      29.226257      29.293929      25385.363      0.017          2846.7929    
     17100   301.8033      -0.14995435     0.021947795    29.653452      28.996569      29.39324       25273.729      0.0171         1479.9343    
     17200   294.40112     -0.094040042   -0.13561237     29.656367      28.791875      29.572624      25250.953      0.0172         928.10305    
     17300   297.82348      0.088197495    0.03255332     29.659283      28.751123      29.54882       25197.392      0.0173        -870.4416     
     17400   297.67275      0.14424813    -0.028475591    29.662198      28.878498      29.421713      25202.631      0.0174        -1423.6183    
     17500   295.01132     -0.05046451    -0.034414448    29.665114      28.848722      29.286861      25063.713      0.0175         498.04599    
     17600   301.63285      0.057519075    0.041760921    29.668029      28.909854      29.152255      25003.843      0.0176        -567.66913    
     17700   301.5787       0.35574478    -0.0082375214   29.670945      28.961834      29.28668       25166.776      0.0177        -3510.928     
     17800   307.48064      0.20991807     0.057067255    29.67386       28.943175      29.293895      25159.229      0.0178        -2071.7303    
     17900   303.06573      0.17324343    -0.046770566    29.676776      28.579308      29.494763      25015.739      0.0179        -1709.7797    
     18000   304.91452      0.37962484     0.10843464     29.679691      28.680163      29.432154      25053.19       0.018         -3746.6059    
     18100   298.52477      0.1134351      0.12526684     29.682607      28.921015      29.36129       25205.232      0.0181        -1119.5174    
     18200   306.1701       0.32232505     0.0094758403   29.685522      28.90825       29.317283      25158.817      0.0182        -3181.1009    
     18300   297.28299      0.18093212     0.099595932    29.688438      28.649791      29.512436      25102.32       0.0183        -1785.6612    
     18400   298.60731      0.052758205   -0.024125054    29.691353      28.806588      29.488259      25221.502      0.0184        -520.683      
     18500   300.43709      0.44331341     0.01818291     29.694269      28.940744      29.095426      25003.859      0.0185        -4375.1632    
     18600   297.52965      0.034865648    0.14096498     29.697184      28.876357      29.098299      24953.144      0.0186        -344.09719    
     18700   293.46482      0.19806578    -0.062050802    29.7001        29.159279      29.044785      25153.757      0.0187        -1954.7573    
     18800   300.91184     -0.17718402     0.024369185    29.703015      29.063684      29.050106      25078.348      0.0188         1748.6703    
     18900   300.67901      0.0074452439   0.036275869    29.705931      29.094515      28.951518      25022.208      0.0189        -73.478844    
     19000   291.24658      0.081383669    0.061426805    29.708846      28.950949      29.235028      25145.027      0.019         -803.19437    
     19100   302.02756     -0.14854738    -0.08031518     29.711762      28.914108      29.242879      25122.239      0.0191         1466.0487    
     19200   298.38358     -0.2299964      0.0017533609   29.714677      28.689777      29.554373      25195.324      0.0192         2269.888     
     19300   295.60694     -0.079821467    0.015080604    29.717593      28.659477      29.505503      25129.562      0.0193         787.77662    
     19400   303.97466      0.0078220882  -0.033911518    29.720508      28.807246      29.393698      25165.884      0.0194        -77.198009    
     19500   293.8243       0.47604622    -0.069261659    29.723424      28.891558      29.409548      25255.626      0.0195        -4698.2109    
     19600   306.22414      0.30299423     0.11329722     29.726339      29.194377      29.204988      25345.313      0.0196        -2990.3205    
     19700   299.21632      0.20307069    -0.035654628    29.729254      29.020445      29.348392      25320.507      0.0197        -2004.1519    
     19800   301.68022      0.22540991    -0.094284596    29.73217       28.784179      29.592042      25325.346      0.0198        -2224.6229    
     19900   301.31507      0.39314366     0.012900267    29.735085      28.939751      29.551436      25429.778      0.0199        -3880.0262    
     20000   307.95395     -0.16454452     0.093973829    29.738001      28.969353      29.56094       25466.474      0.02           1623.9281    
     20100   297.9617       0.050171278    0.015264819    29.740916      28.847439      29.619291      25411.849      0.0201        -495.15201    
     20200   299.35905     -0.11669025     0.02420277     29.743832      28.812516      29.481592      25265.566      0.0202         1151.6432    
     20300   300.50163     -0.23603866     0.10823589     29.746747      28.772774      29.746066      25459.552      0.0203         2329.5205    
     20400   296.95127      0.17519655    -0.0043533837   29.749663      28.772108      29.755489      25469.523      0.0204        -1729.0555    
     20500   301.97791      0.17820544    -0.021155019    29.752578      28.905875      29.728129      25566.913      0.0205        -1758.7509    
     20600   295.54555      0.033211893    0.030582477    29.755494      28.872968      29.807016      25608.085      0.0206        -327.7759     
     20700   292.36227      0.13940341    -0.018397825    29.758409      28.943455      29.70555       25585.723      0.0207        -1375.8047    
     20800   304.09023     -0.11926787     0.057693163    29.761325      28.825001      29.337869      25168.084      0.0208         1177.0824    
     20900   303.99383     -0.098895657    0.069794149    29.76424       28.845073      29.343448      25192.866      0.0209         976.02424    
     21000   308.25155     -0.16140446     0.10554305     29.767156      28.865413      29.530279      25373.634      0.021          1592.9381    
     21100   297.60037     -0.054440244   -0.011795889    29.770071      28.781567      29.67014       25422.246      0.0211         537.28343    
     21200   300.48324      0.20416035     0.048155975    29.772987      28.835369      29.706308      25503.313      0.0212        -2014.906     
     21300   311.00969      0.24149875     0.052001661    29.775902      28.782965      29.556915      25331.422      0.0213        -2383.4074    
     21400   298.60759      0.30844005     0.073226066    29.778818      28.529594      29.499419      25062.045      0.0214        -3044.0666    
     21500   303.37407      0.24914322     0.024464963    29.781733      28.818455      29.25985       25112.662      0.0215        -2458.8524    
     21600   304.77834      0.16023811    -0.058477138    29.784649      28.756695      29.274087      25073.492      0.0216        -1581.4272    
     21700   298.95636      0.30085849     0.031288856    29.787564      28.715552      29.555189      25280.514      0.0217        -2969.2424    
     21800   305.97614      0.26825247     0.084954349    29.79048       28.854252      29.852368      25660.559      0.0218        -2647.446     
     21900   297.69681     -0.29282853     0.071471808    29.793395      28.569176      30.031018      25561.584      0.0219         2889.9929    
     22000   297.60105     -0.23273161    -0.031914817    29.796311      28.6034        29.69205       25305.816      0.022          2296.8824    
     22100   299.10019     -0.031303276    0.067487041    29.799226      28.745843      29.599916      25355.402      0.0221         308.93932    
     22200   304.13279      0.095210145    0.072317685    29.802142      28.97475       29.437146      25419.258      0.0222        -939.65108    
     22300   293.15328      0.28169487     0.022341122    29.805057      28.972222      29.485042      25460.886      0.0223        -2780.1122    
     22400   296.35797     -0.07630498     0.043556457    29.807973      28.821809      29.456498      25306.658      0.0224         753.0716     
     22500   303.62553     -0.19566936     0.064016563    29.810888      28.873919      29.492054      25385.497      0.0225         1931.1065    
     22600   302.66937      0.22177123    -0.017815302    29.813804      28.873343      29.69767       25564.473      0.0226        -2188.7119    
     22700   292.5885      -0.088055766    0.037721543    29.816719      28.805559      29.526395      25359.845      0.0227         869.04284    
     22800   307.02377      0.33493913    -0.038027127    29.819635      28.910154      29.58445       25504.466      0.0228        -3305.5922    
     22900   297.00302     -0.12594689     0.095630251    29.82255       28.817974      29.54187       25389.036      0.0229         1242.9992    
     23000   299.64654     -0.1682418      0.038645592    29.825466      28.470512      29.941222      25424.477      0.023          1660.4175    
     23100   302.60896     -0.23000845     0.011933295    29.828381      28.598755      29.881558      25490.6        0.0231         2270.0069    
     23200   296.71907     -0.0010059826   0.04165367     29.831297      28.808575      29.570087      25412.448      0.0232         9.9282768    
     23300   299.89943      0.027351564   -0.016621096    29.834212      28.909924      29.397922      25355.849      0.0233        -269.93895    
     23400   301.2361       0.30223887     0.0038629125   29.837128      28.922344      29.366772      25342.34       0.0234        -2982.8658    
     23500   307.32303      0.29486055     0.055054305    29.840043      28.868209      29.266562      25211.054      0.0235        -2910.0474    
     23600   291.25429     -0.11769409     0.049570407    29.842959      29.059133      29.203254      25325.369      0.0236         1161.5504    
     23700   292.37406     -0.29996647    -0.015173415    29.845874      29.002322      29.424787      25470.086      0.0237         2960.4388    
     23800   301.34728     -0.29723386     0.00952795     29.84879       29.062015      29.389031      25493.984      0.0238         2933.4701    
     23900   304.90561     -0.14165645    -0.023254266    29.851705      28.937926      29.283531      25296.474      0.0239         1398.0405    
     24000   298.39029      0.053673071    0.07380624     29.854621      28.928019      29.483652      25463.114      0.024         -529.71202    
     24100   305.79871     -0.057630473   -0.010145841    29.857536      28.74578       29.46676       25290.677      0.0241         568.76855    
     24200   292.94926      0.14749777     0.026516215    29.860452      28.4876        29.625136      25200.699      0.0242        -1455.6898    
     24300   305.18048      0.34384421     0.016801595    29.863367      28.661128      29.484199      25236.05       0.0243        -3393.4785    
     24400   299.57182     -0.044015453   -0.0037948803   29.866283      28.482363      29.570316      25154.353      0.0244         434.39875    
     24500   299.47005      0.060426116    0.05915683     29.869198      28.563596      29.449158      25125.188      0.0245        -596.3594     
     24600   303.44633      0.013073158   -0.050115848    29.872114      28.582665      29.830821      25470.289      0.0246        -129.02203    
     24700   299.26569      0.043891315   -0.010875994    29.875029      28.528247      29.744654      25350.839      0.0247        -433.1736     
     24800   297.81884     -0.18506121     0.052423492    29.877944      28.337353      29.729358      25170.713      0.0248         1826.4122    
     24900   308.54986     -0.13426638    -0.086532363    29.88086       28.525301      29.436513      25090.522      0.0249         1325.1061    
     25000   292.27963     -0.12985145    -0.043058797    29.883775      28.572292      29.200265      24932.587      0.025          1281.5342    
     25100   299.48459     -0.23494393     0.061851466    29.886691      28.464098      29.502089      25097.359      0.0251         2318.7163    
     25200   305.0453      -0.29187687     0.079264929    29.889606      28.470645      29.833906      25387.949      0.0252         2880.6007    
     25300   292.18122     -0.027972795    0.059060856    29.892522      28.57149       29.852314      25496.082      0.0253         276.07002    
     25400   294.66632      0.23574621     0.11358063     29.895437      28.547919      29.880977      25501.996      0.0254        -2326.6342    
     25500   299.28487      0.075042421    0.025051639    29.898353      28.355451      29.930398      25374.431      0.0255        -740.61111    
     25600   305.61077      0.12905042     0.02718619     29.901268      28.555829      29.891647      25523.148      0.0256        -1273.6286    
     25700   294.3647       0.3167518      0.12198143     29.904184      28.737111      29.545381      25390.114      0.0257        -3126.0972    
     25800   300.11095      0.094466577    0.0053808164   29.907099      28.825718      29.582119      25502.556      0.0258        -932.31263    
     25900   298.09391      0.041485988    0.050441947    29.910015      28.771392      29.4737        25363.675      0.0259        -409.43487    
     26000   294.21144      0.10874864    -0.0018253752   29.91293       28.659194      29.476463      25269.596      0.026         -1073.2657    
     26100   300.93902     -0.024328372    0.036352205    29.915846      28.343401      29.589069      25089.069      0.0261         240.10237    
     26200   301.8667       0.19884828     0.10232494     29.918761      28.488979      29.699957      25314.906      0.0262        -1962.4799    
     26300   294.17017      0.22519852     0.15358477     29.921677      28.534845      29.453511      25147.715      0.0263        -2222.5366    
     26400   304.24918      0.10831218     0.0035653385   29.924592      28.874907      29.021856      25076.91       0.0264        -1068.9581    
     26500   301.83968     -0.018666048    0.067834806    29.927508      29.331744      28.855427      25330.044      0.0265         184.21957    
     26600   297.86067      0.055164189    0.012563418    29.930423      29.319517      29.113512      25548.433      0.0266        -544.42821    
     26700   298.20162      0.23830234     0.049878056    29.933339      29.499415      29.027488      25631.735      0.0267        -2351.8612    
     26800   301.37321     -0.30565525     0.010504435    29.936254      29.569479      28.821027      25512.357      0.0268         3016.5828    
     26900   301.15874      0.058343455    0.048384555    29.93917       29.51074       28.756165      25406.85       0.0269        -575.80513    
     27000   304.83842      0.11456097     0.076044804    29.942085      29.563236      28.769306      25466.156      0.027         -1130.6288    
     27100   297.99585     -0.26443623     0.017257633    29.945001      29.564318      28.809701      25505.33       0.0271         2609.7827    
     27200   300.97852     -0.12269137     0.023176897    29.947916      29.50457       28.987232      25613.13       0.0272         1210.8696    
     27300   303.41092      0.045359163    0.02054896     29.950832      29.201912      29.115034      25464.636      0.0273        -447.66013    
     27400   302.24539      0.24837481    -0.018606858    29.953747      29.218842      29.072223      25444.411      0.0274        -2451.2688    
     27500   300.93441      0.066480355    0.057470832    29.956663      29.172323      29.174108      25495.412      0.0275        -656.11009    
     27600   306.41392     -0.19914551    -0.017315992    29.959578      29.480122      28.891642      25517.446      0.0276         1965.4134    
     27700   295.02538     -0.31189712    -0.058926906    29.962494      29.53109       28.898963      25570.528      0.0277         3078.1852    
     27800   299.67695     -0.17745407    -0.018173696    29.965409      29.551724      28.802662      25505.606      0.0278         1751.3355    
     27900   309.39524      0.21193899     0.031809401    29.968325      29.779736      28.76578       25671.986      0.0279        -2091.6752    
     28000   290.49421     -0.0020711057   0.091192665    29.97124       29.613683      28.805744      25566.792      0.028          20.440224    
     28100   305.98437     -0.22465598     0.023069797    29.974156      29.340204      28.764178      25296.594      0.0281         2217.1821    
     28200   298.66438     -0.22443017     0.039105133    29.977071      29.402229      28.774555      25361.683      0.0282         2214.9535    
     28300   296.13978     -0.22439738    -0.0309455      29.979987      29.332309      28.832894      25355.135      0.0283         2214.63      
     28400   304.41828     -0.31909713     0.01120986     29.982902      29.344446      29.097798      25601.164      0.0284         3149.2438    
     28500   304.29895     -0.1357355      0.0050529095   29.985818      29.325614      29.167211      25648.26       0.0285         1339.6052    
     28600   293.70713      0.3457862      0.13747916     29.988733      29.45984       29.029421      25646.428      0.0286        -3412.6445    
     28700   295.34982     -0.048703186   -0.031519172    29.991649      29.446165      29.035035      25641.973      0.0287         480.66308    
     28800   298.56301      0.037445465    0.0050286093   29.994564      29.393522      28.776456      25370.644      0.0288        -369.55801    
     28900   302.79834      0.038065345    0.086718155    29.99748       29.241005      28.877813      25330.36       0.0289        -375.67575    
     29000   297.83528     -0.12277009     0.034945108    30.000395      28.999049      29.211329      25413.358      0.029          1211.6466    
     29100   304.45861      0.039390674   -0.048342332    30.003311      28.880816      29.261909      25356.032      0.0291        -388.75573    
     29200   297.52484      0.3384973      0.072151156    30.006226      28.839668      29.206333      25274.273      0.0292        -3340.7086    
     29300   310.02055     -0.00094476226  0.038563315    30.009142      28.990089      29.239809      25437.689      0.0293         9.3240786    
     29400   298.08837      0.15629743     0.0022329044   30.012057      29.021321      29.257932      25483.353      0.0294        -1542.5357    
     29500   294.39123      0.22173193     0.10448421     30.014973      29.028016      29.191858      25434.139      0.0295        -2188.324     
     29600   303.6058       0.1109905     -0.068511708    30.017888      29.102081      29.10659       25427.022      0.0296        -1095.3911    
     29700   301.55599     -0.061558323    0.072149894    30.020804      28.991841      29.341684      25537.781      0.0297         607.53341    
     29800   301.7017       0.29814723     0.033872334    30.023719      29.216746      29.135511      25557.536      0.0298        -2942.4843    
     29900   305.39373     -0.048339188    0.034750114    30.026635      29.170256      29.006355      25406.221      0.0299         477.07069    
     30000   299.79766     -0.0078582929  -0.019667011    30.02955       29.024235      28.969127      25249.048      0.03           77.555321    
     30100   292.8463       0.0088588569  -0.031483597    30.032465      29.260053      28.829341      25333.828      0.0301        -87.43012     
     30200   296.08868     -0.21808974     0.097011801    30.035381      29.274724      28.898172      25409.512      0.0302         2152.3783    
     30300   293.63797     -0.032431898    0.061176397    30.038296      29.182345      28.917942      25349.119      0.0303         320.07794    
     30400   297.94479     -0.020228053   -0.0081915908   30.041212      29.185522      28.608201      25082.769      0.0304         199.63536    
     30500   301.18763     -0.13127458    -0.0073238514   30.044127      29.039664      28.851126      25171.781      0.0305         1295.5793    
     30600   302.39734      0.022109607   -0.047854743    30.047043      28.83551       29.010068      25134.956      0.0306        -218.20486    
     30700   291.20296     -0.068695356    0.013896201    30.049958      28.78242       29.025011      25104.038      0.0307         677.97045    
     30800   298.71635     -0.17320699     0.031438437    30.052874      29.0092        29.098883      25368.692      0.0308         1709.4201    
     30900   297.91671      0.16323184     0.012980505    30.055789      29.243117      28.893846      25395.523      0.0309        -1610.973     
     31000   288.37668      0.18823696     0.117767       30.058705      28.954667      29.102066      25328.686      0.031         -1857.7544    
     31100   302.2813      -0.19092714     0.018526467    30.06162       29.197359      29.021372      25472.636      0.0311         1884.3043    
     31200   300.93478     -0.39385646    -0.032499133    30.064536      28.908098      28.978241      25185.237      0.0312         3887.0611    
     31300   310.06952     -0.12549824    -0.047039261    30.067451      28.971024      29.142554      25385.637      0.0313         1238.5714    
     31400   299.15943     -0.26636437     0.0025439818   30.070367      29.12418       29.188091      25562.193      0.0314         2628.812     
     31500   297.49526      0.07625476     0.011055949    30.073282      29.069532      28.959295      25316.686      0.0315        -752.57596    
     31600   304.81449      0.21208377    -0.034690731    30.076198      28.866426      28.949417      25133.662      0.0316        -2093.104     
     31700   300.74305      0.17799194     0.010332595    30.079113      28.908288      29.083196      25288.877      0.0317        -1756.6438    
     31800   290.70807      0.39636746     0.046335901    30.082029      29.114385      29.409703      25757.599      0.0318        -3911.8426    
     31900   300.58452      0.069413505    0.066301215    30.084944      29.262314      29.484064      25956.445      0.0319        -685.05803    
     32000   302.66949      0.04185382     0.027654026    30.08786       29.173923      29.273994      25696.153      0.032         -413.06509    
     32100   295.41146      0.018283445    0.04150767     30.090775      29.329589      29.0366        25626.253      0.0321        -180.44358    
     32200   306.29436     -0.13849549     0.022592421    30.093691      29.186225      28.844986      25335.164      0.0322         1366.8442    
     32300   302.98135     -0.23363745    -0.031068336    30.096606      29.099276      28.87665       25289.865      0.0323         2305.8223    
     32400   295.52153     -0.17541157     0.060649085    30.099522      29.174763      28.92302       25398.646      0.0324         1731.1776    
     32500   292.61545      0.11748932     0.0093279786   30.102437      29.063323      29.086093      25446.75       0.0325        -1159.5295    
     32600   295.70686     -0.41399564     0.029968513    30.105353      29.041031      29.109458      25450.122      0.0326         4085.8193    
     32700   307.80177     -0.027023434   -0.0018614234   30.108268      28.981155      29.314287      25578.838      0.0327         266.70055    
     32800   295.73641      0.10177369     0.091553963    30.111184      28.918445      29.50515       25692.158      0.0328        -1004.4282    
     32900   303.77953     -0.096082555   -0.0027617627   30.114099      28.850648      29.467439      25601.643      0.0329         948.26109    
     33000   295.40664     -0.12329401    -0.009954411    30.117015      28.769838      29.407212      25480.221      0.033          1216.8173    
     33100   298.05999      0.38620615     0.098328638    30.11993       28.572402      29.632511      25501.701      0.0331        -3811.5583    
     33200   300.10191     -0.095002097    0.077818165    30.122846      28.316895      29.634391      25277.705      0.0332         937.59779    
     33300   297.89498     -0.43867289    -0.042813114    30.125761      28.453         29.724638      25479.017      0.0333         4329.3648    
     33400   307.2093       0.15254498     0.10694665     30.128677      28.349106      29.551631      25240.67       0.0334        -1505.5019    
     33500   301.13624      0.032293321    0.12670632     30.131592      28.662832      29.397528      25389.374      0.0335        -318.71029    
     33600   298.30347     -0.053890919   -0.087216925    30.134508      28.746846      29.388005      25458.007      0.0336         531.86202    
     33700   303.44485      0.14906909    -0.014556389    30.137423      28.685939      29.369949      25390.916      0.0337        -1471.1976    
     33800   299.57893      0.08337603     0.043806517    30.140339      28.613092      29.437711      25387.326      0.0338        -822.85744    
     33900   302.15207     -0.25421746     0.03226102     30.143254      28.691225      29.195658      25249.774      0.0339         2508.9313    
     34000   309.80675      0.40589863     0.048432482    30.14617       28.77916       29.147054      25287.443      0.034         -4005.908     
     34100   295.99727     -0.30325967     0.054895785    30.149085      28.880632      29.228222      25449.732      0.0341         2992.9402    
     34200   304.45381     -0.24060619    -0.010731568    30.152001      29.006108      29.106172      25456.03       0.0342         2374.5985    
     34300   303.92625      0.26084567     0.12525283     30.154916      28.840105      29.282437      25466.084      0.0343        -2574.3466    
     34400   299.7079      -0.012937789    0.10645792     30.157832      28.786092      29.116545      25276.833      0.0344         127.68605    
     34500   300.08772      0.06578655    -0.043428198    30.160747      28.851806      29.469064      25643.745      0.0345        -649.26277    
     34600   305.8469      -0.058818461    0.033447302    30.163663      28.797557      29.560754      25677.647      0.0346         580.49308    
     34700   299.0377       0.073482294   -0.032787207    30.166578      28.613174      29.458841      25427.739      0.0347        -725.21386    
     34800   297.21248      0.027543325    0.061525779    30.169494      28.566134      29.581061      25493.722      0.0348        -271.83148    
     34900   307.65821      0.15508933     0.00016241911  30.172409      28.663927      29.29753       25338.254      0.0349        -1530.6127    
     35000   297.52666     -0.14957017     0.043969113    30.175325      28.765459      29.377638      25499.997      0.035          1476.1428    
     35100   303.87268     -0.31787656     0.127929       30.17824       28.772262      29.403557      25530.998      0.0351         3137.1978    
     35200   309.21291     -0.18226509     0.053376327    30.181155      28.591823      29.399171      25369.552      0.0352         1798.8166    
     35300   301.50893      0.20880588    -0.020833011    30.184071      28.8291        29.417548      25598.551      0.0353        -2060.7538    
     35400   301.11028      0.15683922     0.11952885     30.186986      28.74788       29.250491      25383.923      0.0354        -1547.8828    
     35500   305.27162      0.10881584     0.025580063    30.189902      28.587966      29.407719      25380.858      0.0355        -1073.9288    
     35600   297.69362     -0.29247602     0.097761323    30.192817      28.391228      29.455316      25249.425      0.0356         2886.5139    
     35700   304.7996       0.012877719   -0.013376963    30.195733      28.476543      29.419295      25296.772      0.0357        -127.0932     
     35800   301.31083      0.060731078    0.12227873     30.198648      28.559955      29.265896      25241.017      0.0358        -599.36914    
     35900   295.99453      0.020373614   -0.11482564     30.201564      28.545749      29.176292      25153.648      0.0359        -201.07193    
     36000   308.25767      0.041828042    0.034904259    30.204479      28.538246      29.23154       25197.086      0.036         -412.81068    
     36100   297.64633      0.42598145     0.017514829    30.207395      28.766774      29.135088      25317.497      0.0361        -4204.1101    
     36200   300.5765       0.00091322015  0.040453551    30.21031       28.703756      29.112143      25244.576      0.0362        -9.0127822    
     36300   298.23548     -0.13890371    -0.052563197    30.213226      28.584918      29.326385      25327.514      0.0363         1370.873     
     36400   290.42263      0.1040466     -0.068717188    30.216141      28.703178      29.293951      25406.624      0.0364        -1026.8601    
     36500   298.57552      0.23287228     0.095560253    30.219057      28.684573      29.389445      25475.381      0.0365        -2298.2707    
     36600   296.01271     -0.19913987     0.050063497    30.221972      28.574514      29.233344      25245.277      0.0366         1965.3577    
     36700   302.31959     -0.086451879   -0.054290796    30.224888      28.565365      29.172171      25186.813      0.0367         853.21371    
     36800   293.64582      0.046196206   -0.0060865677   30.227803      28.855823      28.968006      25267.29       0.0368        -455.92111    
     36900   305.50494     -0.15299845    -0.00037619975  30.230719      28.714436      29.019627      25190.721      0.0369         1509.9773    
     37000   301.5969      -0.11578552     0.1425194      30.233634      28.712072      29.009726      25182.481      0.037          1142.7142    
     37100   304.7963      -0.030998181    0.011276975    30.23655       28.593443      29.309559      25340.08       0.0371         305.92826    
     37200   302.68763     -0.23844722     0.09048878     30.239465      28.767267      29.051118      25271.764      0.0372         2353.2911    
     37300   300.35159      0.11293103     0.060107205    30.242381      28.873928      29.216042      25511.925      0.0373        -1114.5426    
     37400   291.96841      0.20569        0.088647977    30.245296      28.840216      28.927438      25232.851      0.0374        -2030.0025    
     37500   302.00219      0.13806287    -0.012261489    30.248212      29.026499      28.825909      25309.139      0.0375        -1362.5746    
     37600   297.72392      0.012442599    0.067106189    30.251127      29.004457      28.572381      25069.907      0.0376        -122.79891    
     37700   301.40996      0.26562041     0.017305641    30.254043      28.911659      29.069594      25427.016      0.0377        -2621.4696    
     37800   307.11011      0.035325153    0.032351406    30.256958      28.512432      29.385131      25350.536      0.0378        -348.63215    
     37900   297.4661      -0.11597313    -0.095333537    30.259874      28.40763       29.319054      25202.99       0.0379         1144.5658    
     38000   294.14386      0.47393477     0.042505082    30.262789      28.455928      29.398723      25316.88       0.038         -4677.3725    
     38100   302.66201      0.035839039    0.059307086    30.265705      28.65842       29.334797      25444.043      0.0381        -353.70381    
     38200   300.08204      0.056168421    0.095290895    30.26862       28.671635      29.379638      25497.143      0.0382        -554.33921    
     38300   293.59374      0.084859012    0.073185163    30.271536      28.724568      29.277263      25457.657      0.0383        -837.49333    
     38400   300.8419      -0.028917022    0.064462976    30.274451      28.734798      29.051601      25272.866      0.0384         285.38882    
     38500   302.14905     -0.15391511     0.11431595     30.277367      28.720959      28.946633      25171.847      0.0385         1519.024     
     38600   299.34491     -0.210142      -0.022791998    30.280282      28.681861      29.020781      25204.399      0.0386         2073.9403    
     38700   300.51485     -0.032749168    0.0018219582   30.283198      28.529291      29.27149       25289.342      0.0387         323.20916    
     38800   302.25201      0.28410493     0.058955557    30.286113      28.548787      29.152024      25205.767      0.0388        -2803.8976    
     38900   302.25451      0.058839988    0.0057851034   30.289029      28.210114      29.164904      24920.155      0.0389        -580.70554    
     39000   298.93636     -0.21249604    -0.056800159    30.291944      28.475703      29.129374      25126.544      0.039          2097.1729    
     39100   296.24598     -0.015055389    0.043829426    30.29486       28.550736      29.181333      25240.118      0.0391         148.58513    
     39200   296.60524      0.15018214     0.021836716    30.297775      28.444792      29.309808      25259.601      0.0392        -1482.1824    
     39300   297.35321     -0.068266138    0.037989978    30.300691      28.486985      29.131906      25145.943      0.0393         673.7344     
     39400   301.71743     -0.0089853155   0.10616316     30.303606      28.742952      28.90463       25176.369      0.0394         88.678169    
     39500   304.66462      0.090463688   -0.087005773    30.306522      28.757491      28.895758      25183.795      0.0395        -892.80718    
     39600   310.80242      0.048257854    0.19510841     30.309437      28.80091       28.891874      25220.854      0.0396        -476.26799    
     39700   305.37389      0.11830883     0.0033105221   30.312353      28.705428      29.076365      25300.19       0.0397        -1167.6174    
     39800   296.3506       0.16344217     0.079264415    30.315268      28.763751      28.896132      25196.873      0.0398        -1613.0489    
     39900   307.32792      0.031106428    0.0094672659   30.318184      29.021229      28.562899      25131.664      0.0399        -306.99657    
     40000   305.2564       0.10060131     0.020048487    30.321099      28.927115      28.615737      25098.918      0.04          -992.85769    
     40100   300.97821      0.0043035783   0.060897453    30.324015      28.893138      28.754335      25193.281      0.0401        -42.473016    
     40200   297.56193      0.05754294     0.010183252    30.32693       28.817277      29.140279      25466.842      0.0402        -567.90467    
     40300   306.84709     -0.063779533    0.057903755    30.329845      28.549182      29.05876       25161.755      0.0403         629.45505    
     40400   297.89799     -0.099259973    0.020486898    30.332761      28.642879      28.875128      25087.219      0.0404         979.61977    
     40500   302.64967      0.048215534   -0.008029172    30.335676      28.70007       28.872884      25137.774      0.0405        -475.85033    
     40600   301.52172     -0.19318461     0.052258826    30.338592      28.513209      28.930391      25026.252      0.0406         1906.5838    
     40700   299.34112     -0.070647238   -0.05034679     30.341507      28.525878      28.977995      25080.981      0.0407         697.23403    
     40800   298.95717      0.095791229    0.029301868    30.344423      28.671439      29.088275      25307.331      0.0408        -945.38593    
     40900   301.45045      0.075572141   -0.0030952779   30.347338      28.73854       29.038074      25325.214      0.0409        -745.83904    
     41000   298.92391     -0.2297063      0.03901886     30.350254      28.762159      29.044221      25353.829      0.041          2267.0249    
     41100   299.30594     -0.030447142    0.13831563     30.353169      28.73073       29.023033      25310.079      0.0411         300.48993    
     41200   300.43439     -0.14362996     0.008264311    30.356085      28.683754      28.958646      25215.06       0.0412         1417.5175    
     41300   298.72573     -0.11822756     0.082206971    30.359         28.770061      29.064134      25385.496      0.0413         1166.8153    
     41400   303.44506     -0.16001096     0.0278442      30.361916      28.74394       29.017966      25324.591      0.0414         1579.1854    
     41500   294.6642      -0.26225236     0.10959204     30.364831      28.459146      28.867707      24946.236      0.0415         2588.2295    
     41600   296.45972     -0.18277768     0.053264506    30.367747      28.29515       29.001315      24919.669      0.0416         1803.8754    
     41700   306.76104     -0.054444881   -0.068861638    30.370662      28.262325      29.452333      25280.278      0.0417         537.3292     
     41800   292.41422     -0.19075927     0.040572878    30.373578      28.215865      29.394828      25191.861      0.0418         1882.6476    
     41900   301.20679     -0.022114455    0.1053021      30.376493      28.312559      29.432138      25312.706      0.0419         218.2527     
     42000   306.94543     -0.18445063     0.023008973    30.379409      28.166703      29.557045      25291.602      0.042          1820.3862    
     42100   295.73282      0.10419533     0.038758327    30.382324      28.116608      29.459476      25165.695      0.0421        -1028.3279    
     42200   301.40389      0.077555628    0.17274888     30.38524       28.078344      29.463061      25136.917      0.0422        -765.41454    
     42300   305.99584     -0.057282251    0.022151651    30.388155      28.237311      29.229856      25081.549      0.0423         565.33186    
     42400   300.74569     -0.19101168     0.0064632464   30.391071      28.268931      29.188159      25076.221      0.0424         1885.1387    
     42500   299.91716     -0.25401288     0.077408268    30.393986      28.221991      29.444372      25256.759      0.0425         2506.9123    
     42600   307.37457      0.040178832    0.0096199672   30.396902      28.295671      29.218986      25131.271      0.0426        -396.53424    
     42700   295.8597      -0.13482458    -0.058364731    30.399817      28.222226      29.235021      25082.201      0.0427         1330.6151    
     42800   295.86134     -0.023456821   -0.034925738    30.402733      28.138012      29.30483       25069.475      0.0428         231.50082    
     42900   302.13415      0.067765822    0.076929591    30.405648      28.315034      29.423067      25331.406      0.0429        -668.79666    
     43000   300.74521      0.14035049     0.033282122    30.408564      28.517291      29.224042      25342.208      0.043         -1385.1516    
     43100   298.85832     -0.19793193     0.11817397     30.411479      28.682136      28.867819      25180.422      0.0431         1953.4363    
     43200   294.32919     -0.21266605    -0.039942783    30.414395      28.910911      28.858988      25375.935      0.0432         2098.8507    
     43300   294.81936     -0.32711931     0.11146738     30.41731       28.767141      28.94432       25326.831      0.0433         3228.4166    
     43400   299.59425      0.026297244   -0.039861066    30.420226      28.785277      28.950576      25350.706      0.0434        -259.53362    
     43500   292.17948      0.15347307     0.094385157    30.423141      28.627898      28.907274      25176.808      0.0435        -1514.6615    
     43600   300.31823     -0.17919376    -0.010553232    30.426057      28.313215      29.104848      25072.648      0.0436         1768.5049    
     43700   303.81723     -0.024211101    0.082421663    30.428972      28.077817      29.063702      24831.419      0.0437         238.94498    
     43800   294.18132      0.17294416     0.029149471    30.431888      28.120171      29.074311      24880.338      0.0438        -1706.8261    
     43900   296.30505     -0.27606397     0.1317072      30.434803      28.281714      29.105345      25052.379      0.0439         2724.5396    
     44000   302.20948     -0.093659196    0.024275103    30.437719      28.046159      29.271626      24988.049      0.044          924.34439    
     44100   299.4128       0.16664397    -0.01033719     30.440634      27.962091      29.112169      24779.806      0.0441        -1644.6481    
     44200   305.98591     -0.074606202    0.14369109     30.44355       28.129828      29.167871      24978.542      0.0442         736.30597    
     44300   304.52448     -0.038332782   -0.14358309     30.446465      28.223142      29.14287       25042.319      0.0443         378.31514    
     44400   298.49526      0.09298303     0.049471763    30.449381      28.385413      29.243746      25275.903      0.0444        -917.67115    
     44500   299.4059       0.16305742     0.023932277    30.452296      28.13238       29.141144      24965.088      0.0445        -1609.2516    
     44600   298.56938      0.15265403     0.12779312     30.455212      28.171295      29.183277      25038.164      0.0446        -1506.5781    
     44700   300.22119     -0.35943059    -0.023167332    30.458127      28.214906      29.276346      25159.307      0.0447         3547.3041    
     44800   312.15807      0.075607756    0.023323428    30.461043      28.075172      29.148184      24927.498      0.0448        -746.19053    
     44900   301.69451      0.03809262     0.083589235    30.463958      28.203788      28.95959       24882.051      0.0449        -375.94493    
     45000   303.84807     -0.022632706   -0.0022487219   30.466874      27.964462      29.424441      25069.321      0.045          223.36745    
     45100   311.40728      0.088820765    0.020996639    30.469789      28.022964      29.437839      25135.61       0.0451        -876.59279    
     45200   300.34287      0.42862114     0.015249909    30.472705      28.030177      29.663383      25337.136      0.0452        -4230.1617    
     45300   297.06709      0.26603143     0.045863926    30.47562       28.334652      29.383024      25372.713      0.0453        -2625.5261    
     45400   308.46084     -0.028578627    0.035174139    30.478535      28.246519      28.942884      24917.291      0.0454         282.04912    
     45500   296.39469      0.22763737     0.07476047     30.481451      28.191655      29.1756        25071.251      0.0455        -2246.6061    
     45600   300.00468     -0.39276398    -0.086734565    30.484366      28.272677      29.097487      25078.386      0.0456         3876.2791    
     45700   300.31379      0.012103877    0.029652555    30.487282      28.577953      29.133515      25382.986      0.0457        -119.45598    
     45800   300.75612      0.35835863    -0.006871486    30.490197      28.518624      29.138996      25337.478      0.0458        -3536.7247    
     45900   306.41736     -0.16577366     0.050049141    30.493113      28.213484      29.241425      25156.894      0.0459         1636.0588    
     46000   296.84924     -0.36125778     0.035056243    30.496028      28.311606      29.275285      25276.033      0.046          3565.337     
     46100   297.19663      0.036227402    0.11624494     30.498944      28.203747      29.327675      25227.211      0.0461        -357.53666    
     46200   301.36222      0.14924884     0.025150686    30.501859      28.433657      29.262147      25378.458      0.0462        -1472.9715    
     46300   298.3904       0.21906489     0.10364662     30.504775      28.489393      29.262675      25431.095      0.0463        -2162.0024    
     46400   300.67072     -0.17574482     0.1129242      30.50769       28.524597      29.348291      25539.457      0.0464         1734.4666    
     46500   298.4066       0.085448004   -0.044886576    30.510606      28.405661      29.091446      25212.798      0.0465        -843.30623    
     46600   291.29559      0.30319526     0.030696354    30.513521      28.647755      28.798664      25174.176      0.0466        -2992.3046    
     46700   305.84321      0.045893873   -4.8872162e-05  30.516437      28.522901      28.954118      25202.165      0.0467        -452.93731    
     46800   297.92458      0.075455312   -0.0091856274   30.519352      28.653239      28.719331      25114.432      0.0468        -744.68603    
     46900   300.65985      0.18901219    -0.041333869    30.522268      28.581929      28.707231      25043.766      0.0469        -1865.4053    
     47000   303.52034     -0.037377213    0.11784753     30.525183      28.520369      28.928119      25184.517      0.047          368.88441    
     47100   293.16662     -0.20554461     0.047312132    30.528099      28.45225       29.18199       25347.275      0.0471         2028.5676    
     47200   302.1479      -0.31501208    -0.063606589    30.531014      28.22803       29.244507      25203.804      0.0472         3108.9275    
     47300   298.56028     -0.065850433    0.025364495    30.53393       28.307329      29.146054      25191.925      0.0473         649.89324    
     47400   298.69011     -0.096966312    0.076963398    30.536845      28.543858      28.940789      25225.931      0.0474         956.98309    
     47500   295.95659     -0.096220347   -0.082158591    30.539761      28.133116      29.24746       25128.792      0.0475         949.621      
     47600   297.34737     -0.059614644   -0.030294462    30.542676      28.111283      29.228108      25095.073      0.0476         588.35079    
     47700   296.32174     -0.027541674    0.075333332    30.545592      27.885086      29.149904      24828.91       0.0477         271.81519    
     47800   310.60881      0.23612704     0.039228742    30.548507      28.120548      29.004602      24916.136      0.0478        -2330.3927    
     47900   300.32386      0.016465644   -0.030797545    30.551423      28.109797      28.921417      24837.548      0.0479        -162.50328    
     48000   297.874        0.018654316    0.042570667    30.554338      28.264982      29.086193      25119.354      0.048         -184.10379    
     48100   303.12083     -0.13583419    -0.118323       30.557254      28.112831      29.064405      24967.803      0.0481         1340.5792    
     48200   301.45255      0.015957351    0.081557392    30.560169      28.411665      28.858103      25056.489      0.0482        -157.48681    
     48300   300.08914     -0.087202421   -0.085738325    30.563085      28.318114      28.682113      24824.051      0.0483         860.62098    
     48400   301.75717     -0.15761703    -0.031354232    30.566         28.444602      28.801445      25041.063      0.0484         1555.5592    
     48500   306.00653      0.055626544    0.068734116    30.568916      28.436996      28.779882      25018.01       0.0485        -548.99131    
     48600   299.68803     -0.1886002      0.032934913    30.571831      28.523069      28.599427      24938.77       0.0486         1861.3392    
     48700   304.68131     -0.16029009    -0.036283376    30.574747      28.218706      28.912835      24945.41       0.0487         1581.9402    
     48800   305.05265     -0.094806181    0.047565641    30.577662      28.207912      28.835714      24871.727      0.0488         935.66426    
     48900   300.76279     -0.02132087     0.065811233    30.580578      28.19437       28.850898      24875.248      0.0489         210.42063    
     49000   297.14338      0.25701437     0.080881642    30.583493      27.998509      29.064448      24887.66       0.049         -2536.5346    
     49100   300.82656      0.36064095     0.07668205     30.586409      27.970309      29.322032      25085.33       0.0491        -3559.2494    
     49200   299.53262      0.098583799   -0.014958429    30.589324      27.966172      29.524426      25257.152      0.0492        -972.94645    
     49300   301.97486     -0.06125859     0.017389451    30.59224       27.834753      29.360543      25001.307      0.0493         604.57528    
     49400   296.64464      0.0060678593   0.092843865    30.595155      27.85747       29.317698      24987.58       0.0494        -59.885115    
     49500   299.50326      0.16861169    -0.11625781     30.598071      27.647028      29.467866      24928.215      0.0495        -1664.068     
     49600   295.41032      0.19772226     0.066216355    30.600986      27.769225      29.480029      25051.116      0.0496        -1951.367     
     49700   299.46855      0.24208133     0.026080508    30.603902      27.989064      29.512436      25279.602      0.0497        -2389.157     
     49800   305.10128      0.33253031     0.11580677     30.606817      28.060485      29.525092      25357.393      0.0498        -3281.819     
     49900   306.71509      0.056164611    0.15331973     30.609733      28.08654       29.349398      25232.308      0.0499        -554.30162    
     50000   296.30757     -0.16317497     0.020564754    30.612648      27.970167      29.349609      25130.335      0.05           1610.4118    
     50100   291.50121      0.13838243     0.1083216      30.615564      27.825611      29.506508      25136.498      0.0501        -1365.7284    
     50200   303.02965      0.040841822    0.054953075    30.618479      27.802286      29.470174      25086.89       0.0502        -403.07744    
     50300   299.46949      0.11159426    -0.006206719    30.621395      27.892147      29.3297        25050.392      0.0503        -1101.3497    
     50400   293.63048      0.17354256     0.043690393    30.62431       27.740552      29.368521      24949.594      0.0504        -1712.7319    
     50500   307.99093     -0.3003413      0.090017235    30.627226      27.722216      29.100334      24707.771      0.0505         2964.1382    
     50600   299.43061      0.20403105    -0.018597078    30.630141      27.922615      29.137176      24920.259      0.0506        -2013.6299    
     50700   299.28034      0.23902885     0.034981582    30.633056      28.131108      29.056778      25039.44       0.0507        -2359.0313    
     50800   298.40913      0.21011708     0.075291805    30.635972      28.338998      28.928355      25115.388      0.0508        -2073.6943    
     50900   295.32002      0.14872075    -0.028606176    30.638887      28.304233      29.078564      25217.228      0.0509        -1467.7596    
     51000   295.77838      0.18681914     0.051164638    30.641803      28.097948      29.310156      25235.217      0.051         -1843.7615    
     51100   305.7166      -0.091867709    0.067017034    30.644718      27.950726      29.392563      25175.969      0.0511         906.66379    
     51200   302.3397       0.062689968   -0.0059863288   30.647634      27.979137      29.3026        25126.814      0.0512        -618.70188    
     51300   301.8104       0.40728935     0.069067662    30.650549      28.191083      28.940724      25006.875      0.0513        -4019.6334    
     51400   300.57179      0.5273045      0.0079787445   30.653465      28.307571      28.824309      25011.577      0.0514        -5204.0908    
     51500   293.15585      0.50264267    -0.040655687    30.65638       28.393154      28.838455      25101.894      0.0515        -4960.6975    
     51600   300.70273      0.35903392     0.040061805    30.659296      28.438461      28.949732      25241.364      0.0516        -3543.3893    
     51700   299.09029     -0.29027616    -0.029052542    30.662211      28.474338      28.907609      25238.834      0.0517         2864.803     
     51800   300.31158      0.37666662     0.02954124     30.665127      28.621453      28.736801      25221.729      0.0518        -3717.4105    
     51900   295.71275      0.081635166    0.073292648    30.668042      28.370295      28.563924      24852.368      0.0519        -805.67644    
     52000   302.83234     -0.11185098     0.067248229    30.670958      28.243258      28.809662      24956.306      0.052          1103.8834    
     52100   298.10283      0.23210393     0.046600511    30.673873      28.34749       28.924807      25150.91       0.0521        -2290.6877    
     52200   308.75714      0.05669158     0.045536702    30.676789      28.388173      29.020866      25273.054      0.0522        -559.50239    
     52300   299.18574      0.16271106    -0.00052824935  30.679704      28.136973      29.359469      25344.092      0.0523        -1605.8333    
[...]
    987400   299.56593     -0.089749809    0.031837806    57.942454      19.111081      22.667496      25100.692      0.9874         885.76175    
    987500   296.15941     -0.27360873     0.035328114    57.94537       19.195432      22.382915      24896.212      0.9875         2700.3082    
    987600   294.68834      0.22349632     0.1456615      57.948285      19.003455      22.394854      24661.608      0.9876        -2205.7372    
    987700   302.66972     -0.23206573     0.033719344    57.951201      18.996667      22.419406      24681.068      0.9877         2290.3107    
    987800   296.43051      0.21867714     0.10444234     57.954116      19.03846       22.565554      24897.865      0.9878        -2158.1756    
    987900   305.09766      0.084312124    0.25373799     57.957031      19.143081      22.33458       24779.685      0.9879        -832.09597    
    988000   302.20362      0.043419632    0.039061882    57.959947      19.121767      22.449478      24880.681      0.988         -428.51845    
    988100   296.77087      0.17130586     0.0082359934   57.962862      19.097537      22.627109      25047.031      0.9881        -1690.6574    
    988200   314.35634      0.31308894    -0.02037995     57.965778      19.002957      22.37707       24648.816      0.9882        -3089.9476    
    988300   294.31421      0.2605873      0.27051042     57.968693      18.937721      22.589539      24798.682      0.9883        -2571.7967    
    988400   293.87014      0.002818073    0.10739611     57.971609      19.055334      22.470401      24822.342      0.9884        -27.812218    
    988500   302.17557      0.058841572   -0.050022888    57.974524      19.104364      22.279636      24676.176      0.9885        -580.72117    
    988600   298.40043     -0.023179033   -0.02609247     57.97744       19.01218       22.459914      24757.059      0.9886         228.75927    
    988700   302.8883       0.071433171    0.066423179    57.980355      19.138567      22.458073      24920.846      0.9887        -704.99058    
    988800   300.30624      0.090408778   -0.14164188     57.983271      18.965867      22.440057      24677.398      0.9888        -892.26526    
    988900   295.23218      0.094638419    0.20338986     57.986186      18.97486       22.698288      24974.467      0.9889        -934.00858    
    989000   302.54847      0.011160825    0.023329847    57.989102      19.097788      22.588371      25015.798      0.989         -110.14878    
    989100   303.54251      0.2614158      0.10855704     57.992017      19.190504      22.382458      24909.349      0.9891        -2579.9733    
    989200   305.85385     -0.028443299    0.052105003    57.994933      18.980178      22.465652      24729.16       0.9892         280.71354    
    989300   300.67335      0.028296601   -0.015445387    57.997848      19.194601      22.601218      25160.706      0.9893        -279.26574    
    989400   298.31147      0.17194525     0.17050623     58.000764      19.245132      22.500807      25116.128      0.9894        -1696.9677    
    989500   302.82914      0.066357929    0.27630589     58.003679      19.154099      22.202239      24666.87       0.9895        -654.90184    
    989600   296.31436      0.066633543    0.072267669    58.006595      19.251041      22.323979      24928.905      0.9896        -657.62194    
    989700   299.02591     -0.14428804     0.10258674     58.00951       19.087337      22.503437      24916.865      0.9897         1424.0123    
    989800   295.38628      0.15847644     0.083237069    58.012426      19.195797      22.591931      25158.255      0.9898        -1564.0409    
    989900   298.19502      0.066547705    0.098877055    58.015341      19.173185      22.460983      24984.224      0.9899        -656.77479    
    990000   301.84332     -0.10164565     0.18234022     58.018257      19.193254      22.429393      24976.456      0.99           1003.1646    
    990100   296.88351      0.23147033    -0.045032069    58.021172      19.098083      22.518568      24952.671      0.9901        -2284.4346    
    990200   298.51622      0.14330556     0.10662066     58.024088      19.18475       22.338057      24866.225      0.9902        -1414.3159    
    990300   298.87372      0.19323615     0.14040671     58.027003      19.280993      22.189451      24825.963      0.9903        -1907.0925    
    990400   298.22884     -0.071506666    0.15730291     58.029919      19.180596      22.396924      24928.862      0.9904         705.71593    
    990500   300.71493     -0.26035963    -0.070199896    58.032834      18.947392      22.529952      24773.278      0.9905         2569.5497    
    990600   296.4288       0.019042608   -0.076850593    58.03575       19.135517      22.494968      24981.654      0.9906        -187.93593    
    990700   308.27397      0.22577783     2.6037289e-05  58.038665      19.311637      22.473206      25188.456      0.9907        -2228.2539    
    990800   305.46922      0.39300093     0.12209295     58.041581      19.349543      22.257282      24996.665      0.9908        -3878.6176    
    990900   300.09591      0.58182039     0.14366354     58.044496      19.297994      22.120606      24778.227      0.9909        -5742.1208    
    991000   295.5794      -0.32394522     0.19494509     58.047412      19.192028      22.166881      24694.959      0.991          3197.0907    
    991100   304.35791      0.23860947     0.09145925     58.050327      19.347336      22.380891      25136.408      0.9911        -2354.8924    
    991200   299.06243      0.19790147     0.14815956     58.053243      19.338519      22.379872      25125.072      0.9912        -1953.1357    
    991300   292.80173     -0.098620871    0.045269911    58.056158      19.365622      22.190521      24948.661      0.9913         973.31232    
    991400   293.64412     -0.053566664    0.11806266     58.059074      19.535301      22.189634      25167.515      0.9914         528.66187    
    991500   296.98542     -0.20822197     0.044169528    58.061989      19.433056      22.137542      24978.273      0.9915         2054.9911    
    991600   294.30281     -0.062548239    0.029222541    58.064905      19.579112      21.941328      24944.203      0.9916         617.30312    
    991700   291.2103      -0.17782904     0.085821203    58.06782       19.575597      22.062288      25078.473      0.9917         1755.0362    
    991800   305.17061      0.039951259   -0.024049461    58.070736      19.424029      22.188371      25027.765      0.9918        -394.28827    
    991900   293.10753      0.11000608     0.057301538    58.073651      19.372462      22.234151      25014.078      0.9919        -1085.6756    
    992000   300.69684     -0.06383205     0.037319151    58.076567      19.282215      22.38743       25070.449      0.992          629.97335    
    992100   302.20409     -0.24030411     0.18286189     58.079482      19.439335      22.388102      25276.76       0.9921         2371.6172    
    992200   294.7211       0.04480327    -0.10772331     58.082398      19.237228      22.430297      25062.365      0.9922        -442.1739     
    992300   305.15636      0.25075101     0.083021747    58.085313      19.394651      22.357614      25186.844      0.9923        -2474.7201    
    992400   292.89813     -0.031827916    0.18077758     58.088229      19.482706      22.216264      25142.5        0.9924         314.11711    
    992500   297.73126      0.025815696    0.16620797     58.091144      19.297308      22.250445      24942.809      0.9925        -254.78111    
    992600   312.77406     -0.021232213    0.077015677    58.09406       19.482         22.331151      25274.139      0.9926         209.54565    
    992700   297.52822     -0.43450262    -0.11095574     58.096975      19.248677      22.27916       24914.559      0.9927         4288.2075    
    992800   302.9127      -0.02674899     0.018049803    58.099891      19.368321      22.244747      25031.954      0.9928         263.992      
    992900   300.15054      0.1690355      0.22440167     58.102806      19.311709      22.479842      25223.832      0.9929        -1668.2507    
    993000   305.78068     -0.071880883    0.022944208    58.105721      19.306689      22.459355      25195.557      0.993          709.40916    
    993100   298.06136     -0.11939344     0.063008272    58.108637      19.420277      22.389883      25266.666      0.9931         1178.3216    
    993200   304.43905     -0.042747983   -0.017234293    58.111552      19.494607      22.27875       25238.746      0.9932         421.88979    
    993300   296.09675      0.22711925     0.11885261     58.114468      19.46593       22.226746      25144.054      0.9933        -2241.4928    
    993400   303.00177     -0.10568771    -0.013506609    58.117383      19.371215      22.256488      25056.451      0.9934         1043.0566    
    993500   294.16358      0.23183089     0.071259275    58.120299      19.387947      22.422299      25266.192      0.9935        -2287.9929    
    993600   291.92255      0.18359732     0.096517896    58.123214      19.261112      22.52809       25220.597      0.9936        -1811.9647    
    993700   302.28738      0.15718336     0.0021308617   58.12613       19.333379      22.404497      25177.602      0.9937        -1551.2792    
    993800   298.44761      0.21264503     0.092260533    58.129045      19.356336      22.360468      25159.224      0.9938        -2098.6432    
    993900   304.01582      0.1508817      0.0016471137   58.131961      19.33466       22.468404      25253.626      0.9939        -1489.0866    
    994000   296.45183      0.010675246    0.16008422     58.134876      19.272494      22.172118      24841.732      0.994         -105.35648    
    994100   298.95029      0.33019294     0.10167966     58.137792      19.3434        22.343058      25126.614      0.9941        -3258.751     
    994200   302.12544     -0.12510633     0.125356       58.140707      19.165383      22.29615       24844.353      0.9942         1234.7034    
    994300   298.86564      0.14136968     0.035201204    58.143623      19.380753      22.07437       24874.883      0.9943        -1395.2103    
    994400   295.13028      0.47501818     0.17456203     58.146538      19.646611      22.137755      25289.782      0.9944        -4688.0649    
    994500   302.80796     -0.042383471   -0.050632509    58.149454      19.32422       22.093019      24825.767      0.9945         418.29234    
    994600   294.90427      0.19087251    -0.092395392    58.152369      19.42768       22.121473      24992.08       0.9946        -1883.7652    
    994700   302.91272     -0.0082252954   0.095485078    58.155285      19.42703       22.109781      24979.287      0.9947         81.177354    
    994800   298.45643     -0.059297767   -0.010157507    58.1582        19.239504      22.250271      24896.606      0.9948         585.22346    
    994900   301.68377      0.046240504    0.084390397    58.161116      19.35648       22.454619      25279.286      0.9949        -456.35829    
    995000   305.85665     -0.26572577     0.057396779    58.164031      19.494749      22.065985      25020.469      0.995          2622.5095    
    995100   297.80562     -0.066758447   -0.078665318    58.166947      19.638878      22.103814      25249.93       0.9951         658.85465    
    995200   303.04107      0.02383479     0.044074108    58.169862      19.505535      22.535321      25569.348      0.9952        -235.23109    
    995300   304.81104      0.39769899     0.099668177    58.172778      19.483079      22.5036        25505.239      0.9953        -3924.9839    
    995400   297.76405      0.42689345     0.070139331    58.175693      19.555183      22.059274      25095.431      0.9954        -4213.1108    
    995500   298.9395      -0.16243444     0.11502058     58.178609      19.581543      21.957285      25014.331      0.9955         1603.1033    
    995600   301.9521       0.11434045     0.0079627088   58.181524      19.746026      22.186934      25489.545      0.9956        -1128.4525    
    995700   303.62517      0.14591382     0.071576565    58.18444       19.566616      22.298485      25386.215      0.9957        -1440.0575    
    995800   302.38883     -0.15269508     0.13952443     58.187355      19.552349      22.334123      25409.52       0.9958         1506.9833    
    995900   298.85504      0.13698448     0.050997465    58.190271      19.729281      22.224535      25514.927      0.9959        -1351.9317    
    996000   299.08983      0.29614034     0.1280017      58.193186      19.656174      22.086704      25263.996      0.996         -2922.6779    
    996100   292.72173      0.18045661     0.10900869     58.196102      19.62511       22.040875      25172.991      0.9961        -1780.9683    
    996200   311.47568      0.16872526     0.19893882     58.199017      19.520871      22.112248      25121.626      0.9962        -1665.1889    
    996300   293.15521     -0.15439561    -0.05843255     58.201933      19.574461      22.021168      25088.089      0.9963         1523.7662    
    996400   295.73165      0.1332638      0.070457571    58.204848      19.524248      22.075011      25086.173      0.9964        -1315.2115    
    996500   306.0708      -0.061254869    0.015398429    58.207764      19.329165      22.114625      24881.33       0.9965         604.53856    
    996600   296.6593       0.45534497     0.13197012     58.210679      19.478476      22.15934       25125.486      0.9966        -4493.9055    
    996700   292.72539     -0.087036992    0.00088587426  58.213595      19.42633       22.208174      25114.703      0.9967         858.98832    
    996800   302.63058      0.19019734     0.05374405     58.21651       19.431327      22.089336      24987.988      0.9968        -1877.1018    
    996900   295.34545      0.042738924    0.16544265     58.219426      19.480757      22.275163      25263.564      0.9969        -421.80039    
    997000   305.11784      0.076189776    0.025487789    58.222341      19.344967      22.277535      25091.393      0.997         -751.93463    
    997100   299.4949      -0.073224764   -0.0023349347   58.225257      19.377854      22.260863      25116.498      0.9971         722.67224    
    997200   290.807       -0.15154733    -0.10390367     58.228172      19.207313      22.35177       24998.371      0.9972         1495.6558    
    997300   298.13453      0.043622899   -0.066166674    58.231088      19.313359      22.400338      25192.27       0.9973        -430.52454    
    997400   295.16685      0.22879346     0.021439335    58.234003      19.345293      22.308665      25131.912      0.9974        -2258.0159    
    997500   289.55847      0.092077575    0.071378397    58.236919      19.279674      22.509755      25273.7        0.9975        -908.73502    
    997600   297.83201      0.062736947   -0.057443163    58.239834      19.407984      22.538016      25475.12       0.9976        -619.16553    
    997700   299.0485       0.30217032    -0.055880639    58.24275       19.417423      22.498266      25443.831      0.9977        -2982.1892    
    997800   302.25309      0.23895843     0.018900448    58.245665      19.250865      22.444551      25166.613      0.9978        -2358.3363    
    997900   301.89732      0.27667726     0.18019813     58.248581      19.245896      22.396999      25108.069      0.9979        -2730.5923    
    998000   303.6744       0.32201442     0.23874492     58.251496      19.308712      22.362742      25152.749      0.998         -3178.0353    
    998100   292.23125      0.18860602     0.14003461     58.254411      19.070739      22.509801      25007.369      0.9981        -1861.3967    
    998200   304.03373     -0.11118556     0.029433362    58.257327      19.080352      22.406327      24906.207      0.9982         1097.3162    
    998300   304.02937      0.43755946     0.011603918    58.260242      19.383313      22.459334      25362.798      0.9983        -4318.3761    
    998400   296.61126      0.18304609     0.13372304     58.263158      19.416672      22.394614      25334.503      0.9984        -1806.5245    
    998500   304.39964      0.24299457     0.071866302    58.266073      19.427162      22.223023      25155.228      0.9985        -2398.17      
    998600   298.74011      0.66525648     0.16159424     58.268989      19.297841      22.32533       25104.068      0.9986        -6565.5709    
    998700   303.50006      0.44619168     0.062011585    58.271904      19.263654      22.230402      24954.289      0.9987        -4403.5695    
    998800   305.3459       0.15678745     0.15320806     58.27482       19.271871      22.360161      25111.91       0.9988        -1547.3718    
    998900   293.93084      0.24355239     0.15108634     58.277735      19.421594      22.272184      25208.693      0.9989        -2403.6752    
    999000   305.29648      0.013097281    0.13350072     58.280651      19.270884      22.540865      25316.089      0.999         -129.26012    
    999100   301.20612      0.17129291     0.11713479     58.283566      19.204985      22.573214      25266.989      0.9991        -1690.5296    
    999200   297.64301      0.16117462     0.068616583    58.286482      19.376421      22.382823      25278.789      0.9992        -1590.6698    
    999300   305.70909      0.25992129     0.12190774     58.289397      19.546841      22.298335      25406.134      0.9993        -2565.2236    
    999400   304.21514      0.0091302037  -0.010428646    58.292313      19.516432      22.323359      25396.347      0.9994        -90.108104    
    999500   297.38648      0.085060723    0.062044209    58.295228      19.423696      22.339346      25295.039      0.9995        -839.48406    
    999600   304.01112     -0.10510709     0.070647476    58.298144      19.676083      22.146072      25403.296      0.9996         1037.3263    
    999700   298.36019     -0.028264051   -0.089540678    58.301059      19.286542      22.395397      25181.962      0.9997         278.94449    
    999800   306.20018     -0.023392738    0.086223481    58.303975      19.120303      22.523153      25108.579      0.9998         230.86837    
    999900   291.72657     -0.16888166     0.068215566    58.30689       19.212978      22.366987      25056.594      0.9999         1666.7324    
   1000000   296.11718     -0.091139582    0.12630747     58.309806      19.376873      22.217476      25102.676      1              899.47774    
Loop time of 7960.47 on 4 procs for 1000000 steps with 2808 atoms

Performance: 10.854 ns/day, 2.211 hours/ns, 125.621 timesteps/s
259.0% CPU use with 1 MPI tasks x 4 OpenMP threads

MPI task timing breakdown:
Section |  min time  |  avg time  |  max time  |%varavg| %total
---------------------------------------------------------------
Pair    | 5504       | 5504       | 5504       |   0.0 | 69.14
Bond    | 484.08     | 484.08     | 484.08     |   0.0 |  6.08
Neigh   | 973.83     | 973.83     | 973.83     |   0.0 | 12.23
Comm    | 145.18     | 145.18     | 145.18     |   0.0 |  1.82
Output  | 5.1987     | 5.1987     | 5.1987     |   0.0 |  0.07
Modify  | 833.98     | 833.98     | 833.98     |   0.0 | 10.48
Other   |            | 14.18      |            |       |  0.18

Nlocal:           2808 ave        2808 max        2808 min
Histogram: 1 0 0 0 0 0 0 0 0 0
Nghost:          15674 ave       15674 max       15674 min
Histogram: 1 0 0 0 0 0 0 0 0 0
Neighs:     1.1249e+06 ave  1.1249e+06 max  1.1249e+06 min
Histogram: 1 0 0 0 0 0 0 0 0 0

Total # of neighbors = 1124899
Ave neighs/atom = 400.60506
Ave special neighs/atom = 11.65812
Neighbor list builds = 50340
Dangerous builds = 0
unfix 1
unfix 2
unfix def1

print "All done"
All done
Total wall time: 2:12:40
