units			real
dimension		3
processors		* * *
boundary		p p p
atom_style		full
pair_style		lj/cut 10.0
bond_style		harmonic
angle_style 	harmonic
read_data		after_cross_linking_correct.data
Reading data file ...
  orthogonal box = (30.222448 27.307948 30.19145) to (59.884552 56.970052 59.853554)
  1 by 1 by 1 MPI processor grid
  reading atoms ...
  2988 atoms
  reading velocities ...
  2988 velocities
  scanning bonds ...
  4 = max bonds/atom
  scanning angles ...
  6 = max angles/atom
  reading bonds ...
  3044 bonds
  reading angles ...
  5800 angles
Finding 1-2 1-3 1-4 neighbors ...
  special bond factors lj:    0        0        0       
  special bond factors coul:  0        0        0       
     4 = max # of 1-2 neighbors
     7 = max # of 1-3 neighbors
    16 = max # of 1-4 neighbors
    20 = max # of special neighbors
  special bonds CPU = 0.004 seconds
  read_data CPU = 0.102 seconds
variable simname index ssc
variable tmp equal "lx"
variable L0 equal ${tmp}
variable L0 equal 29.6621039368179
variable strain equal "(lx - v_L0)/v_L0"
variable p1 equal "v_strain"
variable p2 equal "-pxx/10000*1.01325"
variable p3 equal "-pyy/10000*1.01325"
variable p4 equal "-pzz/10000*1.01325"
variable p5 equal "lx"
variable p6 equal "ly"
variable p7 equal "lz"
variable p8 equal "temp"

fix		1 all npt temp 300 300 50 y 0 0 1000 z 0 0 1000 drag 2
fix		2 all deform 1 x erate 1e-5 units box remap x
fix        3 all ave/time 1 100 100 v_p2 v_p3
variable avg_stress equal f_3[1]
#${p3} ${p4} ${p5} ${p6} ${p7} ${p8}
fix def1 all print 100 "${p1} ${p2} ${avg_stress}" file ${simname}.txt screen no
fix def1 all print 100 "${p1} ${p2} ${avg_stress}" file ssc.txt screen no
thermo_style	custom step temp v_p2 pxx lx v_strain
thermo          100
timestep	1
run		1000000
Generated 153 of 153 mixed pair_coeff terms from geometric mixing rule
Last active /omp style is angle_style harmonic/omp
Neighbor list info ...
  update every 1 steps, delay 10 steps, check yes
  max neighbors/atom: 2000, page size: 100000
  master list distance cutoff = 12
  ghost atom cutoff = 12
  binsize = 6, bins = 5 5 5
  1 neighbor lists, perpetual/occasional/extra = 1 0 0
  (1) pair lj/cut/omp, perpetual
      attributes: half, newton on, omp
      pair build: half/bin/newton/omp
      stencil: half/bin/3d
      bin: standard
WARNING: Inconsistent image flags (src/domain.cpp:819)
Per MPI rank memory allocation (min/avg/max) = 27.41 | 27.41 | 27.41 Mbytes
   Step          Temp           v_p2           Pxx             Lx          v_strain   
         0   296.64116     -0.28038351     2767.1701      29.662104      5.9886407e-16
       100   303.21895     -0.045028945    444.40113      29.691766      0.001        
       200   298.89769     -0.046751176    461.39823      29.721428      0.002        
       300   301.23604     -0.089798131    886.23865      29.75109       0.003        
       400   294.75543      0.4495524     -4436.7372      29.780752      0.004        
       500   292.12929      0.25146972    -2481.8132      29.810414      0.005        
       600   301.38282      0.039908797   -393.86921      29.840077      0.006        
       700   297.73279      0.059312261   -585.36651      29.869739      0.007        
       800   301.90348      0.50847062    -5018.2149      29.899401      0.008        
       900   298.47229      0.21290281    -2101.1874      29.929063      0.009        
      1000   300.49338      0.43564222    -4299.4545      29.958725      0.01         
      1100   299.16162     -0.044654816    440.70877      29.988387      0.011        
      1200   297.19289      0.37015873    -3653.1827      30.018049      0.012        
      1300   299.87929      0.022052885   -217.64505      30.047711      0.013        
      1400   297.49443      0.088660253   -875.00867      30.077373      0.014        
      1500   298.86753      0.02146683    -211.86114      30.107035      0.015        
      1600   300.14731     -0.16639711     1642.2118      30.136698      0.016        
      1700   300.73536      0.066655961   -657.84319      30.16636       0.017        
      1800   297.19619      0.36115987    -3564.3707      30.196022      0.018        
      1900   301.06625      0.3110751     -3070.0725      30.225684      0.019        
      2000   297.96247      0.28600551    -2822.6549      30.255346      0.02         
      2100   297.79438      0.22072108    -2178.3477      30.285008      0.021        
      2200   299.14388      0.11352079    -1120.3631      30.31467       0.022        
      2300   303.43384      0.012152275   -119.93363      30.344332      0.023        
      2400   298.37843      0.19874043    -1961.4156      30.373994      0.024        
      2500   296.84198      0.33936019    -3349.2246      30.403657      0.025        
      2600   302.75303      0.095493899   -942.4515       30.433319      0.026        
      2700   297.60177      0.020126875   -198.63681      30.462981      0.027        
      2800   293.65148      0.34654291    -3420.1126      30.492643      0.028        
      2900   306.2658       0.46536894    -4592.8344      30.522305      0.029        
      3000   296.18015      0.22146422    -2185.6819      30.551967      0.03         
      3100   298.74141     -0.109309       1078.796       30.581629      0.031        
      3200   296.71559      0.084402531   -832.98821      30.611291      0.032        
      3300   298.97772      0.44248901    -4367.027       30.640953      0.033        
      3400   300.43281      0.3127656     -3086.7565      30.670615      0.034        
      3500   300.68128      0.20188871    -1992.4867      30.700278      0.035        
      3600   305.52481      0.4076941     -4023.628       30.72994       0.036        
      3700   301.38576     -0.10397758     1026.1789      30.759602      0.037        
      3800   306.10816      0.41606296    -4106.2221      30.789264      0.038        
      3900   298.45305      0.30470479    -3007.2025      30.818926      0.039        
      4000   294.86988      0.33222884    -3278.8437      30.848588      0.04         
      4100   298.49015     -0.061963991    611.53704      30.87825       0.041        
      4200   299.05491     -0.031910064    314.92785      30.907912      0.042        
      4300   299.18138      0.4169024     -4114.5067      30.937574      0.043        
      4400   300.25675      0.05123055    -505.60622      30.967237      0.044        
      4500   301.85873      0.43246114    -4268.0596      30.996899      0.045        
      4600   298.52199      0.24777574    -2445.3564      31.026561      0.046        
      4700   302.86489      0.40814144    -4028.0428      31.056223      0.047        
      4800   299.91782      0.16581028    -1636.4202      31.085885      0.048        
      4900   299.97652      0.029278719   -288.95849      31.115547      0.049        
      5000   296.22482      0.48102015    -4747.2998      31.145209      0.05         
      5100   300.05147      0.31134087    -3072.6955      31.174871      0.051        
      5200   295.48401      0.28341134    -2797.0524      31.204533      0.052        
      5300   299.75861      0.3898559     -3847.5786      31.234195      0.053        
      5400   300.07589      0.44943508    -4435.5794      31.263858      0.054        
      5500   301.31897      0.4238921     -4183.4898      31.29352       0.055        
      5600   301.38171      0.18123303    -1788.6309      31.323182      0.056        
      5700   291.76328      0.36306835    -3583.2061      31.352844      0.057        
      5800   301.55567      0.013934906   -137.52683      31.382506      0.058        
      5900   303.3639       0.11053129    -1090.859       31.412168      0.059        
      6000   299.19936     -0.036335427    358.60278      31.44183       0.06         
      6100   299.55879      0.32821366    -3239.217       31.471492      0.061        
      6200   300.40742      0.12027912    -1187.0626      31.501154      0.062        
      6300   300.48495     -0.21569345     2128.7288      31.530816      0.063        
      6400   304.10299      0.216194      -2133.6689      31.560479      0.064        
      6500   297.61485      0.40272248    -3974.5618      31.590141      0.065        
      6600   300.14911      0.25887037    -2554.8519      31.619803      0.066        
      6700   300.9183       0.14064572    -1388.0654      31.649465      0.067        
      6800   295.52518      0.52683165    -5199.4241      31.679127      0.068        
      6900   299.81355      0.54348332    -5363.7633      31.708789      0.069        
      7000   299.13965      0.3197348     -3155.5372      31.738451      0.07         
      7100   297.74729      0.41099198    -4056.1755      31.768113      0.071        
      7200   301.19313      0.60699168    -5990.5421      31.797775      0.072        
      7300   298.78407      0.18506321    -1826.4319      31.827438      0.073        
      7400   297.9947       0.0089418396  -88.249095      31.8571        0.074        
      7500   298.53474      0.02513563    -248.06938      31.886762      0.075        
      7600   299.14503     -0.11762829     1160.901       31.916424      0.076        
      7700   296.32834      0.10438137    -1030.164       31.946086      0.077        
      7800   306.40243      0.29280921    -2889.8022      31.975748      0.078        
      7900   301.03598      0.42572533    -4201.5823      32.00541       0.079        
      8000   302.71674      0.59925001    -5914.1378      32.035072      0.08         
      8100   302.4121       0.21682181    -2139.8649      32.064734      0.081        
      8200   301.89033     -0.12388459     1222.6458      32.094396      0.082        
      8300   294.80348      0.33023101    -3259.1267      32.124059      0.083        
      8400   306.11124      0.52785746    -5209.5481      32.153721      0.084        
      8500   300.67733      0.18194512    -1795.6587      32.183383      0.085        
      8600   298.85953      0.27840888    -2747.682       32.213045      0.086        
      8700   303.50898      0.13049671    -1287.9024      32.242707      0.087        
      8800   300.57812      0.34233319    -3378.5659      32.272369      0.088        
      8900   296.66559      0.12212003    -1205.231       32.302031      0.089        
      9000   300.78013      0.24232009    -2391.5133      32.331693      0.09         
      9100   301.65142      0.42372869    -4181.877       32.361355      0.091        
      9200   299.52575      0.34004576    -3355.9908      32.391017      0.092        
      9300   298.82822      0.42560573    -4200.402       32.42068       0.093        
      9400   300.13461      0.63433347    -6260.3846      32.450342      0.094        
      9500   300.37275      0.12638768    -1247.3494      32.480004      0.095        
      9600   301.34347      0.14698131    -1450.5927      32.509666      0.096        
      9700   303.55827      0.20602899    -2033.3481      32.539328      0.097        
      9800   296.8733       0.21758247    -2147.3721      32.56899       0.098        
      9900   302.06507      0.07220371    -712.59521      32.598652      0.099        
     10000   303.75688      0.41175273    -4063.6835      32.628314      0.1          
     10100   307.03631      0.30620839    -3022.0419      32.657976      0.101        
     10200   292.21994      0.48026775    -4739.8742      32.687639      0.102        
     10300   299.4522       0.49410419    -4876.4292      32.717301      0.103        
     10400   305.78667      0.24574489    -2425.3135      32.746963      0.104        
     10500   296.75522      0.1042157     -1028.529       32.776625      0.105        
     10600   297.4764       0.41472015    -4092.9696      32.806287      0.106        
     10700   300.58807      0.37557738    -3706.6606      32.835949      0.107        
     10800   298.67613      0.3947911     -3896.2852      32.865611      0.108        
     10900   293.17594      0.083195923   -821.07992      32.895273      0.109        
     11000   300.64999      0.72849745    -7189.7108      32.924935      0.11         
     11100   301.5101       0.5341652     -5271.8007      32.954597      0.111        
     11200   295.66913      0.52616711    -5192.8656      32.98426       0.112        
     11300   303.28646      0.48571408    -4793.6253      33.013922      0.113        
     11400   300.03803      0.65976998    -6511.4234      33.043584      0.114        
     11500   301.99955      0.3168092     -3126.6637      33.073246      0.115        
     11600   298.69758      0.41550586    -4100.724       33.102908      0.116        
     11700   295.96501      0.48892792    -4825.3434      33.13257       0.117        
     11800   301.82576      0.29031744    -2865.2104      33.162232      0.118        
     11900   298.23755      0.14637115    -1444.5709      33.191894      0.119        
     12000   300.81746      0.4730954     -4669.0886      33.221556      0.12         
     12100   296.51664      0.51404099    -5073.1901      33.251219      0.121        
     12200   302.88687      0.11024577    -1088.0411      33.280881      0.122        
     12300   297.07503      0.38941053    -3843.1831      33.310543      0.123        
     12400   297.69316      0.57896114    -5713.9022      33.340205      0.124        
     12500   305.24818      0.40904494    -4036.9596      33.369867      0.125        
     12600   295.7033       0.6552631     -6466.944       33.399529      0.126        
     12700   297.49429      0.2379171     -2348.0592      33.429191      0.127        
     12800   303.60911      0.35775034    -3530.7213      33.458853      0.128        
     12900   299.29967      0.2864497     -2827.0387      33.488515      0.129        
     13000   309.01885      0.25118468    -2479           33.518177      0.13         
     13100   300.98063      0.61990418    -6117.9786      33.54784       0.131        
     13200   299.63532      0.56101525    -5536.79        33.577502      0.132        
     13300   300.55047      0.44105379    -4352.8625      33.607164      0.133        
     13400   297.74478      0.23506751    -2319.9359      33.636826      0.134        
     13500   295.53489      0.38502893    -3799.9401      33.666488      0.135        
     13600   304.57103      0.76486427    -7548.6235      33.69615       0.136        
     13700   298.86325      0.41956614    -4140.7959      33.725812      0.137        
     13800   293.8815       0.43827223    -4325.4106      33.755474      0.138        
     13900   302.23057      0.25359578    -2502.7957      33.785136      0.139        
     14000   300.71423      0.4711444     -4649.8337      33.814798      0.14         
     14100   297.65196      0.45472106    -4487.7479      33.844461      0.141        
     14200   294.85718      0.36296908    -3582.2263      33.874123      0.142        
     14300   303.24118      0.61508664    -6070.4332      33.903785      0.143        
     14400   299.72811      0.39973377    -3945.0655      33.933447      0.144        
     14500   298.21708      0.30308747    -2991.2408      33.963109      0.145        
     14600   303.19359      0.39673631    -3915.483       33.992771      0.146        
     14700   301.87552      0.5456621     -5385.2662      34.022433      0.147        
     14800   298.43988      0.61880433    -6107.1239      34.052095      0.148        
     14900   304.71243      0.76767039    -7576.3177      34.081757      0.149        
     15000   294.27542      0.39639502    -3912.1147      34.11142       0.15         
     15100   301.31137      0.2670268     -2635.3496      34.141082      0.151        
     15200   299.77044      0.49559948    -4891.1866      34.170744      0.152        
     15300   296.74955      0.51437979    -5076.5339      34.200406      0.153        
     15400   303.73898      0.37896504    -3740.0941      34.230068      0.154        
     15500   303.38234      0.49030367    -4838.921       34.25973       0.155        
     15600   298.11135      0.17134824    -1691.0757      34.289392      0.156        
     15700   299.36604      0.26855746    -2650.4561      34.319054      0.157        
     15800   300.02147      0.44211429    -4363.3288      34.348716      0.158        
     15900   300.88715      0.77807895    -7679.0422      34.378378      0.159        
     16000   299.82946      0.33902394    -3345.9061      34.408041      0.16         
     16100   301.55766      0.60755589    -5996.1105      34.437703      0.161        
     16200   299.18721      0.78986445    -7795.3561      34.467365      0.162        
     16300   301.15965      0.50859958    -5019.4876      34.497027      0.163        
     16400   299.17806      0.53685217    -5298.319       34.526689      0.164        
     16500   300.82646      0.61535542    -6073.0859      34.556351      0.165        
     16600   301.7956       0.40638376    -4010.6959      34.586013      0.166        
     16700   303.65507      0.53714338    -5301.193       34.615675      0.167        
     16800   299.68467      0.17950633    -1771.5897      34.645337      0.168        
     16900   299.83716      0.28423079    -2805.1398      34.675         0.169        
     17000   298.2983       0.29306488    -2892.3255      34.704662      0.17         
     17100   299.79854      0.29937462    -2954.5978      34.734324      0.171        
     17200   303.89175      0.32207763    -3178.659       34.763986      0.172        
     17300   299.02954      0.058728242   -579.60269      34.793648      0.173        
     17400   300.96135      0.16665613    -1644.7681      34.82331       0.174        
     17500   295.84087      0.58622075    -5785.5489      34.852972      0.175        
     17600   295.56455      0.26023563    -2568.326       34.882634      0.176        
     17700   301.13484      0.25458364    -2512.5452      34.912296      0.177        
     17800   303.54556      0.54861851    -5414.4437      34.941958      0.178        
     17900   298.25395      0.41809367    -4126.2637      34.971621      0.179        
     18000   298.71482      0.50540615    -4987.9709      35.001283      0.18         
     18100   293.00342      0.54648472    -5393.3848      35.030945      0.181        
     18200   299.43006      0.26209512    -2586.6777      35.060607      0.182        
     18300   305.5493       0.23646627    -2333.7406      35.090269      0.183        
     18400   299.1765       0.21845971    -2156.0297      35.119931      0.184        
     18500   295.50802      0.5947895     -5870.1159      35.149593      0.185        
     18600   300.19932      0.73935996    -7296.9155      35.179255      0.186        
     18700   297.56193      0.33418423    -3298.142       35.208917      0.187        
     18800   299.59165      0.52790549    -5210.0221      35.238579      0.188        
     18900   301.67734      0.458448      -4524.53        35.268242      0.189        
     19000   304.06038      0.76408569    -7540.9395      35.297904      0.19         
     19100   292.38718      0.47967107    -4733.9854      35.327566      0.191        
     19200   303.11006      0.55587557    -5486.0654      35.357228      0.192        
     19300   304.06898      0.49004964    -4836.4139      35.38689       0.193        
     19400   301.09026      0.17154923    -1693.0592      35.416552      0.194        
     19500   300.15369      0.7513177     -7414.9292      35.446214      0.195        
     19600   300.86576      0.49126694    -4848.4277      35.475876      0.196        
     19700   301.61336      0.4679898     -4618.7003      35.505538      0.197        
     19800   305.19916      0.49106016    -4846.387       35.535201      0.198        
     19900   302.68503      0.40319504    -3979.2257      35.564863      0.199        
     20000   298.82242      0.46444404    -4583.7063      35.594525      0.2          
     20100   302.38749      0.3468908     -3423.546       35.624187      0.201        
     20200   302.61407      0.43883555    -4330.9701      35.653849      0.202        
     20300   298.7336       0.47215368    -4659.7945      35.683511      0.203        
     20400   292.20231      0.80648117    -7959.3503      35.713173      0.204        
     20500   293.65608      0.49583673    -4893.528       35.742835      0.205        
     20600   293.17932      0.46052109    -4544.9898      35.772497      0.206        
     20700   300.58729      0.39371947    -3885.7091      35.802159      0.207        
     20800   296.76532      0.49525189    -4887.7561      35.831822      0.208        
     20900   298.62261      0.6331997     -6249.1952      35.861484      0.209        
     21000   300.44978      0.66151946    -6528.6895      35.891146      0.21         
     21100   300.75763      0.5710083     -5635.4138      35.920808      0.211        
     21200   300.57328      0.74630024    -7365.4107      35.95047       0.212        
     21300   295.91285      0.47983433    -4735.5967      35.980132      0.213        
     21400   297.90315      0.70891945    -6996.491       36.009794      0.214        
     21500   302.97367      0.5090736     -5024.1658      36.039456      0.215        
     21600   300.48579      0.5332187     -5262.4594      36.069118      0.216        
     21700   296.71302      0.74679603    -7370.3038      36.09878       0.217        
     21800   302.28098      0.6092481     -6012.8112      36.128443      0.218        
     21900   299.3035       0.65716105    -6485.6753      36.158105      0.219        
     22000   298.70027      0.55913005    -5518.1846      36.187767      0.22         
     22100   294.34275      0.27850053    -2748.5866      36.217429      0.221        
     22200   302.64463      0.64424627    -6358.2164      36.247091      0.222        
     22300   295.1672       0.69040027    -6813.7209      36.276753      0.223        
     22400   300.62943      0.93120405    -9190.2695      36.306415      0.224        
     22500   301.87228      0.92801767    -9158.8223      36.336077      0.225        
     22600   301.82707      0.88391966    -8723.6087      36.365739      0.226        
     22700   297.34065      0.93575494    -9235.1832      36.395402      0.227        
     22800   295.74628      0.96311363    -9505.1925      36.425064      0.228        
     22900   301.75364      0.5549478     -5476.9089      36.454726      0.229        
     23000   298.40175      0.49186974    -4854.3769      36.484388      0.23         
     23100   299.57641      0.32946783    -3251.5947      36.51405       0.231        
     23200   306.35374      0.4407128     -4349.4971      36.543712      0.232        
     23300   300.13291      0.29328944    -2894.5417      36.573374      0.233        
     23400   295.54294      0.41829723    -4128.2727      36.603036      0.234        
     23500   297.68326      0.56815754    -5607.2789      36.632698      0.235        
     23600   300.16708      0.714801      -7054.5373      36.66236       0.236        
     23700   303.89071      0.98019217    -9673.7446      36.692023      0.237        
     23800   302.42896      0.643135      -6347.249       36.721685      0.238        
     23900   296.28372      0.63341249    -6251.2952      36.751347      0.239        
     24000   299.487        0.88189619    -8703.6387      36.781009      0.24         
     24100   298.71675      0.54599235    -5388.5255      36.810671      0.241        
     24200   295.99083      0.52519362    -5183.258       36.840333      0.242        
     24300   302.01545      0.57994181    -5723.5807      36.869995      0.243        
     24400   307.74345      0.8054527     -7949.2001      36.899657      0.244        
     24500   298.04296      0.87193509    -8605.3302      36.929319      0.245        
     24600   297.72981      0.56922399    -5617.804       36.958982      0.246        
     24700   295.11471      0.86471432    -8534.0668      36.988644      0.247        
     24800   295.23598      0.68672348    -6777.4338      37.018306      0.248        
     24900   300.07363      0.6366799     -6283.5421      37.047968      0.249        
     25000   304.01919      0.62530968    -6171.3268      37.07763       0.25         
     25100   297.83178      0.66299865    -6543.288       37.107292      0.251        
     25200   296.78807      0.50716209    -5005.3007      37.136954      0.252        
     25300   296.57617      0.5134139     -5067.0012      37.166616      0.253        
     25400   297.25671      0.49696334    -4904.6468      37.196278      0.254        
     25500   300.58419      0.81403406    -8033.8915      37.22594       0.255        
     25600   297.97077      0.53701217    -5299.898       37.255603      0.256        
     25700   299.32275      0.8304374     -8195.7799      37.285265      0.257        
     25800   298.44248      0.45397294    -4480.3646      37.314927      0.258        
     25900   301.96065      0.66586458    -6571.5725      37.344589      0.259        
     26000   296.37661      0.50577108    -4991.5725      37.374251      0.26         
     26100   296.43569      0.89735399    -8856.1954      37.403913      0.261        
     26200   301.1769       0.90043994    -8886.6513      37.433575      0.262        
     26300   296.01945      0.85243733    -8412.9024      37.463237      0.263        
     26400   301.77311      0.63133163    -6230.7587      37.492899      0.264        
     26500   303.24481      0.83640577    -8254.6832      37.522561      0.265        
     26600   301.95056      0.7756092     -7654.6676      37.552224      0.266        
     26700   300.22495      0.94087731    -9285.7371      37.581886      0.267        
     26800   300.20517      0.61280245    -6047.89        37.611548      0.268        
     26900   302.28445      0.65047551    -6419.6941      37.64121       0.269        
     27000   299.81386      0.67082263    -6620.5046      37.670872      0.27         
     27100   301.31956      0.73653573    -7269.0425      37.700534      0.271        
     27200   299.12284      0.87409977    -8626.694       37.730196      0.272        
     27300   297.55903      0.92318671    -9111.1444      37.759858      0.273        
     27400   296.03611      0.93184908    -9196.6354      37.78952       0.274        
     27500   296.4841       0.85782366    -8466.0613      37.819183      0.275        
     27600   299.5494       0.78672411    -7764.3633      37.848845      0.276        
     27700   308.50453      0.74499731    -7352.5518      37.878507      0.277        
     27800   301.27389      0.77246072    -7623.5946      37.908169      0.278        
     27900   307.06277      0.92307967    -9110.0881      37.937831      0.279        
     28000   294.81054      0.82441837    -8136.3767      37.967493      0.28         
     28100   302.91928      0.99145258    -9784.8762      37.997155      0.281        
     28200   307.25926      0.88949861    -8778.6687      38.026817      0.282        
     28300   296.71069      0.8465138     -8354.4416      38.056479      0.283        
     28400   297.30713      0.92314669    -9110.7495      38.086141      0.284        
     28500   301.23819      1.0668969     -10529.454      38.115804      0.285        
     28600   300.04938      0.9024537     -8906.5255      38.145466      0.286        
     28700   299.89009      0.80807943    -7975.1239      38.175128      0.287        
     28800   297.29519      1.0410625     -10274.488      38.20479       0.288        
     28900   299.2146       0.81172682    -8011.1208      38.234452      0.289        
     29000   305.62213      0.64526131    -6368.234       38.264114      0.29         
     29100   302.22055      0.7257481     -7162.5769      38.293776      0.291        
     29200   301.56718      1.0038551     -9907.2797      38.323438      0.292        
     29300   298.29069      0.84761551    -8365.3146      38.3531        0.293        
     29400   298.80057      0.93061961    -9184.5015      38.382762      0.294        
     29500   298.44015      0.76588822    -7558.729       38.412425      0.295        
     29600   298.80544      0.75483796    -7449.6715      38.442087      0.296        
     29700   302.68956      0.71128237    -7019.8112      38.471749      0.297        
     29800   301.57588      0.61611974    -6080.6291      38.501411      0.298        
     29900   297.36707      0.73661619    -7269.8366      38.531073      0.299        
     30000   303.93271      0.63939985    -6310.3859      38.560735      0.3          
     30100   300.55989      0.67623309    -6673.9017      38.590397      0.301        
     30200   297.41676      0.84306726    -8320.4269      38.620059      0.302        
     30300   299.88671      0.46070668    -4546.8215      38.649721      0.303        
     30400   302.04467      0.50773096    -5010.9149      38.679384      0.304        
     30500   301.26555      0.86464833    -8533.4156      38.709046      0.305        
     30600   300.63588      1.0045307     -9913.9467      38.738708      0.306        
     30700   296.93638      0.90126405    -8894.7846      38.76837       0.307        
     30800   299.1939       0.94223787    -9299.1648      38.798032      0.308        
     30900   299.78043      0.55246377    -5452.3935      38.827694      0.309        
     31000   304.18692      0.75883071    -7489.0769      38.857356      0.31         
     31100   306.10645      0.82990918    -8190.5668      38.887018      0.311        
     31200   301.67652      0.908133      -8962.5758      38.91668       0.312        
     31300   305.29758      0.85733092    -8461.1983      38.946342      0.313        
     31400   301.01118      0.49031745    -4839.057       38.976005      0.314        
     31500   301.89863      0.81098533    -8003.8029      39.005667      0.315        
     31600   301.33033      1.1064795     -10920.103      39.035329      0.316        
     31700   295.14771      0.68702485    -6780.4081      39.064991      0.317        
     31800   300.35254      0.85203036    -8408.8858      39.094653      0.318        
     31900   304.2188       0.85530943    -8441.2478      39.124315      0.319        
     32000   301.87517      0.91524443    -9032.7602      39.153977      0.32         
     32100   295.81569      0.94005783    -9277.6495      39.183639      0.321        
     32200   292.12248      1.1032639     -10888.368      39.213301      0.322        
     32300   302.31818      0.8579709     -8467.5144      39.242964      0.323        
     32400   295.0457       0.90772969    -8958.5955      39.272626      0.324        
     32500   297.30844      0.92057137    -9085.333       39.302288      0.325        
     32600   299.34146      0.8503595     -8392.3957      39.33195       0.326        
     32700   304.31451      0.73787477    -7282.2578      39.361612      0.327        
     32800   300.00941      1.1278623     -11131.135      39.391274      0.328        
     32900   296.44433      0.85920556    -8479.6996      39.420936      0.329        
     33000   293.41174      1.1692357     -11539.459      39.450598      0.33         
     33100   303.94854      0.88744539    -8758.405       39.48026       0.331        
     33200   299.73325      1.0107891     -9975.7129      39.509922      0.332        
     33300   298.13401      0.98720476    -9742.9535      39.539585      0.333        
     33400   299.54373      0.76360112    -7536.1572      39.569247      0.334        
     33500   300.7588       0.89606669    -8843.4907      39.598909      0.335        
     33600   305.8175       0.76466238    -7546.6309      39.628571      0.336        
     33700   302.30008      0.93669862    -9244.4966      39.658233      0.337        
     33800   302.97885      0.8376506     -8266.9687      39.687895      0.338        
     33900   304.43979      1.1541301     -11390.378      39.717557      0.339        
     34000   301.26251      0.9853116     -9724.2694      39.747219      0.34         
     34100   304.15993      1.0994596     -10850.822      39.776881      0.341        
     34200   299.65519      0.99887795    -9858.1589      39.806543      0.342        
     34300   302.77642      1.0176489     -10043.414      39.836206      0.343        
     34400   301.09924      0.90697886    -8951.1854      39.865868      0.344        
     34500   298.46894      0.92182441    -9097.6996      39.89553       0.345        
     34600   300.22033      1.0891116     -10748.696      39.925192      0.346        
     34700   305.87633      1.1788054     -11633.905      39.954854      0.347        
     34800   301.44589      0.95594933    -9434.4864      39.984516      0.348        
     34900   296.35469      0.90626292    -8944.1196      40.014178      0.349        
     35000   298.94758      0.73891701    -7292.5439      40.04384       0.35         
     35100   303.49026      0.82946309    -8186.1642      40.073502      0.351        
     35200   302.18565      0.83932617    -8283.5053      40.103165      0.352        
     35300   302.3828       0.76747753    -7574.4143      40.132827      0.353        
     35400   302.45955      1.1896488     -11740.921      40.162489      0.354        
     35500   297.412        1.0176673     -10043.595      40.192151      0.355        
     35600   300.15402      1.0695357     -10555.497      40.221813      0.356        
     35700   303.87149      0.87571013    -8642.5871      40.251475      0.357        
     35800   300.82565      1.2816761     -12649.16       40.281137      0.358        
     35900   300.70119      1.403536      -13851.823      40.310799      0.359        
     36000   295.74587      1.2145177     -11986.358      40.340461      0.36         
     36100   300.90793      1.1826008     -11671.362      40.370123      0.361        
     36200   301.1025       0.96372803    -9511.2562      40.399786      0.362        
     36300   301.68106      1.1001114     -10857.255      40.429448      0.363        
     36400   302.312        1.1592747     -11441.152      40.45911       0.364        
     36500   305.03847      1.2741729     -12575.108      40.488772      0.365        
     36600   296.39278      1.2462713     -12299.741      40.518434      0.366        
     36700   299.64707      1.0965877     -10822.479      40.548096      0.367        
     36800   301.38232      1.2074394     -11916.5        40.577758      0.368        
     36900   298.77422      0.75960971    -7496.765       40.60742       0.369        
     37000   297.95067      0.75401496    -7441.5491      40.637082      0.37         
     37100   303.00833      1.0912157     -10769.462      40.666744      0.371        
     37200   296.65187      1.1250714     -11103.591      40.696407      0.372        
     37300   303.22886      1.3925255     -13743.158      40.726069      0.373        
     37400   303.40741      1.0777963     -10637.022      40.755731      0.374        
     37500   299.55327      1.0886526     -10744.166      40.785393      0.375        
     37600   300.51029      1.4673962     -14482.075      40.815055      0.376        
     37700   292.09681      1.1273411     -11125.991      40.844717      0.377        
     37800   299.92396      1.1503264     -11352.839      40.874379      0.378        
     37900   305.38897      1.0153688     -10020.911      40.904041      0.379        
     38000   298.11517      0.95839547    -9458.6279      40.933703      0.38         
     38100   298.02449      1.1232594     -11085.708      40.963366      0.381        
     38200   298.64155      1.0924913     -10782.051      40.993028      0.382        
     38300   297.82318      1.0610574     -10471.823      41.02269       0.383        
     38400   299.8619       0.88528928    -8737.1259      41.052352      0.384        
     38500   307.35114      0.99577121    -9827.4978      41.082014      0.385        
     38600   297.69339      1.6706971     -16488.499      41.111676      0.386        
     38700   295.42264      1.0174938     -10041.883      41.141338      0.387        
     38800   300.54272      0.75794655    -7480.3508      41.171         0.388        
     38900   293.30859      1.1491634     -11341.36       41.200662      0.389        
     39000   301.60998      0.86356376    -8522.7117      41.230324      0.39         
     39100   303.19172      0.96908179    -9564.0936      41.259987      0.391        
     39200   302.0871       0.97276842    -9600.4779      41.289649      0.392        
     39300   297.08789      1.1755445     -11601.722      41.319311      0.393        
     39400   300.79052      1.160999      -11458.169      41.348973      0.394        
     39500   304.49237      1.0997814     -10853.998      41.378635      0.395        
     39600   303.05066      1.2181261     -12021.97       41.408297      0.396        
     39700   303.19638      1.4847401     -14653.246      41.437959      0.397        
     39800   301.3423       1.1341853     -11193.538      41.467621      0.398        
     39900   297.07569      1.2449606     -12286.806      41.497283      0.399        
     40000   303.21478      1.0638204     -10499.091      41.526946      0.4          
     40100   293.88123      1.151321      -11362.655      41.556608      0.401        
     40200   300.69581      0.97890962    -9661.0868      41.58627       0.402        
     40300   295.19481      1.0713416     -10573.32       41.615932      0.403        
     40400   304.6004       1.2173099     -12013.915      41.645594      0.404        
     40500   299.77374      1.2190554     -12031.141      41.675256      0.405        
     40600   306.83065      1.3334256     -13159.888      41.704918      0.406        
     40700   297.69805      1.3597456     -13419.646      41.73458       0.407        
     40800   292.27441      1.1920618     -11764.735      41.764242      0.408        
     40900   305.94837      1.232414      -12162.981      41.793904      0.409        
     41000   297.37677      1.4641212     -14449.753      41.823567      0.41         
     41100   302.87162      1.4362553     -14174.738      41.853229      0.411        
     41200   300.64636      1.2370283     -12208.52       41.882891      0.412        
     41300   300.01277      1.4330933     -14143.531      41.912553      0.413        
     41400   304.39146      1.4097447     -13913.099      41.942215      0.414        
     41500   298.68778      1.506135      -14864.397      41.971877      0.415        
     41600   300.50916      1.5011562     -14815.26       42.001539      0.416        
     41700   300.40924      1.2924764     -12755.75       42.031201      0.417        
     41800   298.55934      1.3466126     -13290.033      42.060863      0.418        
     41900   300.26327      1.4880467     -14685.879      42.090525      0.419        
     42000   301.36537      1.5215172     -15016.207      42.120188      0.42         
     42100   302.52077      1.6625991     -16408.577      42.14985       0.421        
     42200   301.62691      1.6443689     -16228.66       42.179512      0.422        
     42300   297.39005      1.4002081     -13818.979      42.209174      0.423        
     42400   305.02833      1.4627574     -14436.294      42.238836      0.424        
     42500   300.88896      1.6310445     -16097.157      42.268498      0.425        
     42600   301.62103      1.5413693     -15212.132      42.29816       0.426        
     42700   296.7042       1.7353641     -17126.712      42.327822      0.427        
     42800   298.72976      1.6464175     -16248.877      42.357484      0.428        
     42900   301.68798      1.6245969     -16033.525      42.387147      0.429        
     43000   290.41774      1.8324035     -18084.417      42.416809      0.43         
     43100   298.4964       1.6170735     -15959.275      42.446471      0.431        
     43200   297.13897      1.4110562     -13926.042      42.476133      0.432        
     43300   299.4445       1.270908      -12542.887      42.505795      0.433        
     43400   297.67825      1.4256569     -14070.14       42.535457      0.434        
     43500   299.88773      1.5584804     -15381.005      42.565119      0.435        
     43600   299.92095      1.663436      -16416.837      42.594781      0.436        
     43700   305.92441      1.7580418     -17350.523      42.624443      0.437        
     43800   295.28875      1.5020542     -14824.123      42.654105      0.438        
     43900   304.16512      1.5660938     -15456.144      42.683768      0.439        
     44000   294.70744      1.7557299     -17327.707      42.71343       0.44         
     44100   305.54041      1.5501176     -15298.471      42.743092      0.441        
     44200   307.10814      1.7384701     -17157.366      42.772754      0.442        
     44300   294.5605       1.8832597     -18586.329      42.802416      0.443        
     44400   300.00948      1.4807955     -14614.316      42.832078      0.444        
     44500   297.72717      1.5742212     -15536.355      42.86174       0.445        
     44600   301.33594      1.6636156     -16418.609      42.891402      0.446        
     44700   301.849        1.6069576     -15859.439      42.921064      0.447        
     44800   294.93302      1.7479186     -17250.615      42.950727      0.448        
     44900   290.49634      1.6343237     -16129.521      42.980389      0.449        
     45000   296.68347      2.0105516     -19842.602      43.010051      0.45         
     45100   298.37113      1.8992098     -18743.743      43.039713      0.451        
     45200   298.2957       1.7089037     -16865.568      43.069375      0.452        
     45300   302.92071      1.7391653     -17164.227      43.099037      0.453        
     45400   304.34139      1.8800163     -18554.318      43.128699      0.454        
     45500   300.30673      1.8141734     -17904.499      43.158361      0.455        
     45600   305.17068      1.8762137     -18516.79       43.188023      0.456        
     45700   297.32775      1.7032271     -16809.545      43.217685      0.457        
     45800   299.10905      1.860994      -18366.583      43.247348      0.458        
     45900   301.14113      1.790507      -17670.931      43.27701       0.459        
     46000   298.96076      2.0119646     -19856.547      43.306672      0.46         
     46100   297.04641      1.7425498     -17197.629      43.336334      0.461        
     46200   300.27439      1.8555611     -18312.964      43.365996      0.462        
     46300   298.99186      1.5501229     -15298.524      43.395658      0.463        
     46400   300.36797      1.791607      -17681.786      43.42532       0.464        
     46500   304.37929      1.7156876     -16932.52       43.454982      0.465        
     46600   302.93609      2.0176601     -19912.757      43.484644      0.466        
     46700   296.29906      2.079262      -20520.721      43.514306      0.467        
     46800   303.15515      1.9503496     -19248.454      43.543969      0.468        
     46900   300.91682      1.9046215     -18797.152      43.573631      0.469        
     47000   296.17348      1.786143      -17627.861      43.603293      0.47         
     47100   300.18606      2.1507659     -21226.409      43.632955      0.471        
     47200   304.2197       1.7006587     -16784.196      43.662617      0.472        
     47300   300.42616      1.742707      -17199.181      43.692279      0.473        
     47400   299.46564      1.9061692     -18812.427      43.721941      0.474        
     47500   305.91918      1.7249734     -17024.164      43.751603      0.475        
     47600   301.6005       1.6658506     -16440.667      43.781265      0.476        
     47700   298.83336      1.9369002     -19115.719      43.810928      0.477        
     47800   300.04944      2.1712211     -21428.286      43.84059       0.478        
     47900   302.90571      1.7786652     -17554.06       43.870252      0.479        
     48000   303.17629      2.0304637     -20039.118      43.899914      0.48         
     48100   300.06902      1.8737322     -18492.299      43.929576      0.481        
     48200   305.44341      1.8836679     -18590.357      43.959238      0.482        
     48300   289.83731      2.0219161     -19954.761      43.9889        0.483        
     48400   296.7949       2.0287686     -20022.389      44.018562      0.484        
     48500   304.71276      1.9917835     -19657.375      44.048224      0.485        
     48600   302.98187      1.898513      -18736.867      44.077886      0.486        
     48700   295.18568      2.0313595     -20047.96       44.107549      0.487        
     48800   301.79516      2.255604      -22261.08       44.137211      0.488        
     48900   297.30958      2.2668457     -22372.028      44.166873      0.489        
     49000   302.43816      2.2575116     -22279.907      44.196535      0.49         
     49100   297.15143      2.2535842     -22241.146      44.226197      0.491        
     49200   295.98533      1.9270863     -19018.863      44.255859      0.492        
     49300   295.64941      1.8745923     -18500.788      44.285521      0.493        
     49400   297.58524      1.9542248     -19286.699      44.315183      0.494        
     49500   304.93789      1.807633      -17839.951      44.344845      0.495        
     49600   305.67439      2.0930323     -20656.623      44.374507      0.496        
     49700   300.60829      2.0744892     -20473.617      44.40417       0.497        
     49800   298.01326      2.2583983     -22288.658      44.433832      0.498        
     49900   301.61404      2.3564297     -23256.153      44.463494      0.499        
     50000   306.41365      2.2383461     -22090.759      44.493156      0.5          
     50100   295.62562      2.0925975     -20652.332      44.522818      0.501        
     50200   297.20713      2.0717058     -20446.147      44.55248       0.502        
     50300   299.50964      1.8577588     -18334.653      44.582142      0.503        
     50400   297.56883      2.1223178     -20945.648      44.611804      0.504        
     50500   304.748        2.2543491     -22248.695      44.641466      0.505        
     50600   298.93467      2.1873704     -21587.668      44.671129      0.506        
     50700   300.2547       2.457036      -24249.06       44.700791      0.507        
     50800   296.42096      2.4113468     -23798.142      44.730453      0.508        
     50900   309.12913      2.2862917     -22563.944      44.760115      0.509        
     51000   299.29418      2.6197538     -25854.96       44.789777      0.51         
     51100   302.78147      2.3529767     -23222.075      44.819439      0.511        
     51200   299.12622      2.412798      -23812.465      44.849101      0.512        
     51300   305.55049      2.0931965     -20658.244      44.878763      0.513        
     51400   302.11302      2.4568806     -24247.527      44.908425      0.514        
     51500   303.4794       2.4437316     -24117.756      44.938087      0.515        
     51600   298.71315      2.3161388     -22858.512      44.96775       0.516        
     51700   304.1965       2.6236125     -25893.042      44.997412      0.517        
     51800   298.54232      2.2473595     -22179.714      45.027074      0.518        
     51900   301.94938      2.2862518     -22563.551      45.056736      0.519        
     52000   301.71381      2.37166       -23406.464      45.086398      0.52         
     52100   297.29335      2.569644      -25360.414      45.11606       0.521        
     52200   304.52127      2.4606179     -24284.411      45.145722      0.522        
     52300   302.09302      2.4836755     -24511.972      45.175384      0.523        
     52400   295.76671      2.4730632     -24407.236      45.205046      0.524        
     52500   300.98538      2.6327916     -25983.633      45.234709      0.525        
     52600   301.75702      2.694057      -26588.275      45.264371      0.526        
     52700   303.77105      2.5614735     -25279.778      45.294033      0.527        
     52800   297.04604      2.700954      -26656.344      45.323695      0.528        
     52900   292.82823      2.8709341     -28333.916      45.353357      0.529        
     53000   298.2607       2.6511709     -26165.022      45.383019      0.53         
     53100   300.63092      2.8047218     -27680.452      45.412681      0.531        
     53200   301.56578      2.5669078     -25333.411      45.442343      0.532        
     53300   301.45792      2.8786388     -28409.956      45.472005      0.533        
     53400   302.82329      2.7434464     -27075.711      45.501667      0.534        
     53500   299.23781      2.4309653     -23991.762      45.53133       0.535        
     53600   300.44247      2.8175071     -27806.633      45.560992      0.536        
     53700   301.55494      2.8582525     -28208.759      45.590654      0.537        
     53800   301.1334       2.922975      -28847.52       45.620316      0.538        
     53900   300.64412      2.7121597     -26766.935      45.649978      0.539        
     54000   301.48687      2.6386038     -26040.994      45.67964       0.54         
     54100   297.01985      2.9373504     -28989.394      45.709302      0.541        
     54200   302.28633      2.8418496     -28046.875      45.738964      0.542        
     54300   300.95683      2.6471651     -26125.488      45.768626      0.543        
     54400   297.80677      2.8151282     -27783.155      45.798288      0.544        
     54500   305.28788      2.5473948     -25140.832      45.827951      0.545        
     54600   300.59479      2.6111447     -25769.994      45.857613      0.546        
     54700   300.73774      2.8822884     -28445.975      45.887275      0.547        
     54800   299.30596      3.1749264     -31334.087      45.916937      0.548        
     54900   298.94727      3.1871862     -31455.082      45.946599      0.549        
     55000   296.34606      2.9620357     -29233.02       45.976261      0.55         
     55100   300.21347      3.0727973     -30326.152      46.005923      0.551        
     55200   296.15548      3.105811      -30651.971      46.035585      0.552        
     55300   293.57766      3.1482148     -31070.464      46.065247      0.553        
     55400   297.47454      2.9933995     -29542.556      46.09491       0.554        
     55500   296.0627       2.7810445     -27446.775      46.124572      0.555        
     55600   305.05039      2.9621876     -29234.518      46.154234      0.556        
     55700   298.27003      2.881155      -28434.789      46.183896      0.557        
     55800   293.37391      2.9871229     -29480.611      46.213558      0.558        
     55900   298.52788      2.943832      -29053.363      46.24322       0.559        
     56000   298.2996       2.7590417     -27229.624      46.272882      0.56         
     56100   299.88201      3.0682684     -30281.454      46.302544      0.561        
     56200   293.95745      3.0720634     -30318.908      46.332206      0.562        
     56300   299.97056      3.2527403     -32102.051      46.361868      0.563        
     56400   304.75038      3.1875547     -31458.719      46.391531      0.564        
     56500   298.7337       3.2366784     -31943.533      46.421193      0.565        
     56600   297.14554      3.092087      -30516.526      46.450855      0.566        
     56700   306.78472      3.301891      -32587.131      46.480517      0.567        
     56800   301.91916      3.1378381     -30968.054      46.510179      0.568        
     56900   298.28698      3.0977407     -30572.324      46.539841      0.569        
     57000   299.01561      2.9388299     -29003.996      46.569503      0.57         
     57100   298.28551      3.0784828     -30382.263      46.599165      0.571        
     57200   303.4023       3.0350801     -29953.911      46.628827      0.572        
     57300   294.19703      3.248422      -32059.432      46.658489      0.573        
     57400   303.40365      3.2259129     -31837.285      46.688152      0.574        
     57500   300.34202      3.4140075     -33693.635      46.717814      0.575        
     57600   299.17131      3.5754173     -35286.625      46.747476      0.576        
     57700   297.91529      3.4019643     -33574.777      46.777138      0.577        
     57800   298.16334      3.5041605     -34583.375      46.8068        0.578        
     57900   300.32893      3.4555368     -34103.497      46.836462      0.579        
     58000   298.78676      3.4619501     -34166.791      46.866124      0.58         
     58100   295.69851      3.6299818     -35825.134      46.895786      0.581        
     58200   300.83712      3.4436206     -33985.893      46.925448      0.582        
     58300   293.73736      3.7798053     -37303.778      46.955111      0.583        
     58400   303.17308      3.5220999     -34760.424      46.984773      0.584        
     58500   299.21907      3.4430008     -33979.776      47.014435      0.585        
     58600   301.33664      3.7466769     -36976.826      47.044097      0.586        
     58700   299.74567      3.5293538     -34832.014      47.073759      0.587        
     58800   296.16593      3.5304864     -34843.192      47.103421      0.588        
     58900   301.22191      3.421982      -33772.337      47.133083      0.589        
     59000   303.50625      3.497966      -34522.241      47.162745      0.59         
     59100   301.48477      3.3389909     -32953.278      47.192407      0.591        
     59200   300.11663      3.7181174     -36694.966      47.222069      0.592        
     59300   301.7734       3.6477751     -36000.741      47.251732      0.593        
     59400   307.78879      3.910456      -38593.2        47.281394      0.594        
     59500   296.79046      4.0001314     -39478.227      47.311056      0.595        
     59600   295.48928      3.7163659     -36677.679      47.340718      0.596        
     59700   303.29566      3.6541511     -36063.668      47.37038       0.597        
     59800   301.28677      3.773971      -37246.197      47.400042      0.598        
     59900   299.93188      3.6202319     -35728.911      47.429704      0.599        
     60000   296.63468      3.7909726     -37413.991      47.459366      0.6          
     60100   299.33728      4.0414412     -39885.924      47.489028      0.601        
     60200   297.54467      3.9527738     -39010.844      47.518691      0.602        
     60300   299.93223      3.9147962     -38636.034      47.548353      0.603        
     60400   306.2127       4.1809942     -41263.204      47.578015      0.604        
     60500   302.02522      4.1707425     -41162.028      47.607677      0.605        
     60600   296.84367      3.9455596     -38939.646      47.637339      0.606        
     60700   299.93433      4.0471757     -39942.518      47.667001      0.607        
     60800   294.41164      3.9189379     -38676.91       47.696663      0.608        
     60900   297.45111      3.9732169     -39212.602      47.726325      0.609        
     61000   302.23401      3.7943162     -37446.989      47.755987      0.61         
     61100   300.14829      3.9162393     -38650.277      47.785649      0.611        
     61200   297.99145      3.8788555     -38281.327      47.815312      0.612        
     61300   301.5217       3.7256047     -36768.86       47.844974      0.613        
     61400   301.84517      3.8948032     -38438.719      47.874636      0.614        
     61500   294.32647      4.3392721     -42825.286      47.904298      0.615        
     61600   298.02253      3.9410047     -38894.693      47.93396       0.616        
     61700   302.31638      4.0703845     -40171.572      47.963622      0.617        
     61800   297.87536      4.1051708     -40514.886      47.993284      0.618        
     61900   299.68228      4.1431648     -40889.858      48.022946      0.619        
     62000   302.19179      4.2687989     -42129.77       48.052608      0.62         
     62100   300.6033       4.0747457     -40214.614      48.08227       0.621        
     62200   296.92015      4.0441034     -39912.197      48.111933      0.622        
     62300   302.86304      4.2159539     -41608.23       48.141595      0.623        
     62400   309.13691      4.068085      -40148.878      48.171257      0.624        
     62500   296.10205      4.4264956     -43686.115      48.200919      0.625        
     62600   296.30277      4.675944      -46147.979      48.230581      0.626        
     62700   301.85147      4.4207547     -43629.456      48.260243      0.627        
     62800   304.67141      4.2880511     -42319.774      48.289905      0.628        
     62900   296.84504      4.0376015     -39848.028      48.319567      0.629        
     63000   298.55939      4.4297304     -43718.04       48.349229      0.63         
     63100   298.50403      4.5117642     -44527.65       48.378892      0.631        
     63200   298.83277      4.7376937     -46757.401      48.408554      0.632        
     63300   300.26104      4.8043279     -47415.03       48.438216      0.633        
     63400   303.35781      4.6426521     -45819.413      48.467878      0.634        
     63500   298.31892      4.3285005     -42718.979      48.49754       0.635        
     63600   295.69281      4.4423253     -43842.342      48.527202      0.636        
     63700   300.48101      4.6607728     -45998.252      48.556864      0.637        
     63800   296.32606      4.5658459     -45061.396      48.586526      0.638        
     63900   296.67509      4.6686051     -46075.55       48.616188      0.639        
     64000   303.51769      4.6765104     -46153.569      48.64585       0.64         
     64100   301.04733      4.6842698     -46230.148      48.675513      0.641        
     64200   298.91493      4.6101237     -45498.384      48.705175      0.642        
     64300   292.9657       4.5427791     -44833.744      48.734837      0.643        
     64400   301.05643      4.6866192     -46253.336      48.764499      0.644        
     64500   301.98302      4.8456009     -47822.363      48.794161      0.645        
     64600   300.60598      4.9524744     -48877.122      48.823823      0.646        
     64700   295.6033       4.8662829     -48026.478      48.853485      0.647        
     64800   305.41096      4.6355938     -45749.754      48.883147      0.648        
     64900   301.77395      5.0346084     -49687.722      48.912809      0.649        
     65000   297.84756      4.9882658     -49230.356      48.942471      0.65         
     65100   296.48331      4.7073991     -46458.417      48.972134      0.651        
     65200   299.35411      4.8682907     -48046.294      49.001796      0.652        
     65300   295.50875      4.9565523     -48917.367      49.031458      0.653        
     65400   298.19618      4.8762066     -48124.418      49.06112       0.654        
     65500   299.99595      5.0512311     -49851.775      49.090782      0.655        
     65600   299.0571       4.8606045     -47970.437      49.120444      0.656        
     65700   296.92589      5.0719042     -50055.802      49.150106      0.657        
     65800   303.88394      5.3605873     -52904.883      49.179768      0.658        
     65900   302.27855      4.9928393     -49275.493      49.20943       0.659        
     66000   302.63977      5.0533048     -49872.241      49.239093      0.66         
     66100   297.69313      4.9323062     -48678.077      49.268755      0.661        
     66200   300.75048      4.7647868     -47024.789      49.298417      0.662        
     66300   299.92435      4.9256693     -48612.576      49.328079      0.663        
     66400   298.50862      5.084311      -50178.248      49.357741      0.664        
     66500   298.52244      5.036292      -49704.337      49.387403      0.665        
     66600   306.93742      4.9867131     -49215.032      49.417065      0.666        
     66700   298.67832      4.9728605     -49078.317      49.446727      0.667        
     66800   299.37788      5.3332166     -52634.755      49.476389      0.668        
     66900   296.31528      5.1041735     -50374.276      49.506051      0.669        
     67000   299.3625       5.050589      -49845.438      49.535714      0.67         
     67100   295.74223      5.4451969     -53739.916      49.565376      0.671        
     67200   297.5861       5.2502977     -51816.41       49.595038      0.672        
     67300   307.97012      5.0022851     -49368.716      49.6247        0.673        
     67400   301.81119      5.314255      -52447.619      49.654362      0.674        
     67500   301.70577      5.3197698     -52502.045      49.684024      0.675        
     67600   300.97813      5.28983       -52206.563      49.713686      0.676        
     67700   303.95632      5.4048513     -53341.735      49.743348      0.677        
     67800   303.44304      5.3623827     -52922.603      49.77301       0.678        
     67900   296.89337      5.2351532     -51666.945      49.802673      0.679        
     68000   299.76199      5.4619216     -53904.975      49.832335      0.68         
     68100   301.78062      5.5305697     -54582.479      49.861997      0.681        
     68200   301.3693       5.644925      -55711.078      49.891659      0.682        
     68300   303.13276      5.4264082     -53554.485      49.921321      0.683        
     68400   303.37705      5.3103627     -52409.205      49.950983      0.684        
     68500   296.8362       5.5793882     -55064.28       49.980645      0.685        
     68600   305.27412      5.5460887     -54735.64       50.010307      0.686        
     68700   298.88717      5.5903371     -55172.337      50.039969      0.687        
     68800   302.20526      5.6034435     -55301.687      50.069631      0.688        
     68900   303.92301      5.4918884     -54200.725      50.099294      0.689        
     69000   297.67417      5.525284      -54530.313      50.128956      0.69         
     69100   304.14563      5.468208      -53967.017      50.158618      0.691        
     69200   297.81967      5.5849281     -55118.955      50.18828       0.692        
     69300   298.62783      5.7289674     -56540.512      50.217942      0.693        
     69400   298.3564       5.9202238     -58428.066      50.247604      0.694        
     69500   304.82095      5.6285286     -55549.259      50.277266      0.695        
     69600   302.82059      5.7410184     -56659.447      50.306928      0.696        
     69700   303.1453       5.8495902     -57730.967      50.33659       0.697        
     69800   307.25982      5.9870236     -59087.329      50.366252      0.698        
     69900   303.88817      5.7631565     -56877.933      50.395915      0.699        
     70000   294.93281      5.9093817     -58321.063      50.425577      0.7          
     70100   305.57087      5.733074      -56581.041      50.455239      0.701        
     70200   302.88833      6.2516628     -61699.115      50.484901      0.702        
     70300   302.51439      6.0284164     -59495.844      50.514563      0.703        
     70400   298.55442      6.1642697     -60836.612      50.544225      0.704        
     70500   296.46629      6.0864732     -60068.82       50.573887      0.705        
     70600   305.80778      5.8560068     -57794.294      50.603549      0.706        
     70700   304.28098      6.3436686     -62607.141      50.633211      0.707        
     70800   303.8856       6.200627      -61195.431      50.662874      0.708        
     70900   295.31071      6.431964      -63478.55       50.692536      0.709        
     71000   305.8175       6.2232273     -61418.478      50.722198      0.71         
     71100   297.17912      5.8952648     -58181.74       50.75186       0.711        
     71200   303.56738      6.0948121     -60151.119      50.781522      0.712        
     71300   299.74317      6.25383       -61720.503      50.811184      0.713        
     71400   297.26636      6.1814031     -61005.706      50.840846      0.714        
     71500   297.70877      6.1682364     -60875.76       50.870508      0.715        
     71600   290.84828      6.293608      -62113.082      50.90017       0.716        
     71700   303.58274      6.5000444     -64150.451      50.929832      0.717        
     71800   301.00484      6.4615664     -63770.702      50.959495      0.718        
     71900   298.54441      6.6337621     -65470.142      50.989157      0.719        
     72000   298.62738      6.5463162     -64607.118      51.018819      0.72         
     72100   301.88479      6.3927199     -63091.24       51.048481      0.721        
     72200   307.4565       6.643506      -65566.307      51.078143      0.722        
     72300   302.43153      6.6054502     -65190.725      51.107805      0.723        
     72400   298.0119       6.4674009     -63828.284      51.137467      0.724        
     72500   299.9207       6.7320382     -66440.051      51.167129      0.725        
     72600   298.63118      6.3595327     -62763.707      51.196791      0.726        
     72700   296.95833      6.7074717     -66197.598      51.226453      0.727        
     72800   299.12357      7.0228423     -69310.064      51.256116      0.728        
     72900   299.48101      6.6844068     -65969.966      51.285778      0.729        
     73000   299.00772      6.8531532     -67635.364      51.31544       0.73         
     73100   297.88456      6.7614154     -66729.982      51.345102      0.731        
     73200   297.94931      6.6882873     -66008.263      51.374764      0.732        
     73300   300.83249      6.5167716     -64315.535      51.404426      0.733        
     73400   292.46455      6.5784047     -64923.806      51.434088      0.734        
     73500   292.39034      6.7759626     -66873.552      51.46375       0.735        
     73600   302.29501      6.8575892     -67679.143      51.493412      0.736        
     73700   303.27167      6.6066418     -65202.485      51.523075      0.737        
     73800   298.31461      6.9252578     -68346.981      51.552737      0.738        
     73900   296.60071      7.0358798     -69438.735      51.582399      0.739        
     74000   296.90815      6.8315188     -67421.849      51.612061      0.74         
     74100   306.02284      7.0179675     -69261.954      51.641723      0.741        
     74200   295.33478      7.0792345     -69866.613      51.671385      0.742        
     74300   300.33522      7.4039262     -73071.071      51.701047      0.743        
     74400   293.96366      7.2076372     -71133.848      51.730709      0.744        
     74500   297.52139      7.2359991     -71413.759      51.760371      0.745        
     74600   305.73021      7.1313583     -70381.034      51.790033      0.746        
     74700   297.79211      7.1119156     -70189.15       51.819696      0.747        
     74800   299.71946      7.3541262     -72579.582      51.849358      0.748        
     74900   300.20472      7.320318      -72245.922      51.87902       0.749        
     75000   298.35045      7.3572313     -72610.227      51.908682      0.75         
     75100   300.52276      7.2518017     -71569.718      51.938344      0.751        
     75200   299.0387       7.4418593     -73445.441      51.968006      0.752        
     75300   300.96981      7.2499186     -71551.133      51.997668      0.753        
     75400   296.71561      7.2440187     -71492.906      52.02733       0.754        
     75500   294.4192       7.3093348     -72137.526      52.056992      0.755        
     75600   298.57381      7.2987586     -72033.146      52.086655      0.756        
     75700   303.58107      7.0999158     -70070.721      52.116317      0.757        
     75800   302.33118      7.3213604     -72256.209      52.145979      0.758        
     75900   302.57247      7.4675218     -73698.71       52.175641      0.759        
     76000   301.71881      7.5196673     -74213.346      52.205303      0.76         
     76100   302.58098      7.5930025     -74937.109      52.234965      0.761        
     76200   295.30128      7.45127       -73538.317      52.264627      0.762        
     76300   296.83292      7.5763895     -74773.15       52.294289      0.763        
     76400   303.04648      7.4483972     -73509.965      52.323951      0.764        
     76500   298.43189      7.5894977     -74902.519      52.353613      0.765        
     76600   304.66826      7.6842487     -75837.638      52.383276      0.766        
     76700   300.11807      7.6562865     -75561.673      52.412938      0.767        
     76800   299.14644      7.7402234     -76390.066      52.4426        0.768        
     76900   294.42583      7.8646079     -77617.645      52.472262      0.769        
     77000   297.11592      7.8831516     -77800.657      52.501924      0.77         
     77100   303.77954      7.8240988     -77217.852      52.531586      0.771        
     77200   302.0248       8.0050083     -79003.289      52.561248      0.772        
     77300   301.91985      8.0324651     -79274.267      52.59091       0.773        
     77400   291.99927      7.7456045     -76443.173      52.620572      0.774        
     77500   303.88233      8.0492393     -79439.815      52.650234      0.775        
     77600   302.16468      7.8771102     -77741.033      52.679897      0.776        
     77700   304.4367       8.0920005     -79861.836      52.709559      0.777        
     77800   299.63445      8.1415511     -80350.862      52.739221      0.778        
     77900   301.11544      8.0521495     -79468.537      52.768883      0.779        
     78000   299.35148      7.8973507     -77940.792      52.798545      0.78         
     78100   298.00295      8.0640555     -79586.04       52.828207      0.781        
     78200   300.09098      8.1331895     -80268.34       52.857869      0.782        
     78300   298.25636      8.0690307     -79635.141      52.887531      0.783        
     78400   298.69868      8.2173767     -81099.203      52.917193      0.784        
     78500   300.98786      8.2814674     -81731.729      52.946856      0.785        
     78600   300.12285      8.1297833     -80234.723      52.976518      0.786        
     78700   299.61729      8.2782515     -81699.99       53.00618       0.787        
     78800   298.3621       8.2264727     -81188.973      53.035842      0.788        
     78900   300.6763       8.2454689     -81376.451      53.065504      0.789        
     79000   303.16815      8.4818069     -83708.926      53.095166      0.79         
     79100   298.55998      8.4249759     -83148.047      53.124828      0.791        
     79200   301.6068       8.3891977     -82794.944      53.15449       0.792        
     79300   300.33458      8.5582644     -84463.503      53.184152      0.793        
     79400   301.2692       8.410508      -83005.26       53.213814      0.794        
     79500   301.97004      8.8123792     -86971.42       53.243477      0.795        
     79600   303.5453       8.7813827     -86665.509      53.273139      0.796        
     79700   301.87359      8.6891513     -85755.256      53.302801      0.797        
     79800   297.45149      8.7063        -85924.5        53.332463      0.798        
     79900   298.81031      8.7015809     -85877.926      53.362125      0.799        
     80000   300.24155      8.6811188     -85675.981      53.391787      0.8          
     80100   298.72535      8.7553756     -86408.839      53.421449      0.801        
     80200   302.6201       8.7197538     -86057.279      53.451111      0.802        
     80300   302.4231       8.9321379     -88153.347      53.480773      0.803        
     80400   299.68714      9.10456       -89855.021      53.510436      0.804        
     80500   296.7117       8.7905708     -86756.188      53.540098      0.805        
     80600   303.15014      9.1355068     -90160.442      53.56976       0.806        
     80700   299.27774      8.948393      -88313.772      53.599422      0.807        
     80800   300.03346      9.0833923     -89646.112      53.629084      0.808        
     80900   304.74672      9.0462861     -89279.902      53.658746      0.809        
     81000   301.25093      9.1642402     -90444.018      53.688408      0.81         
     81100   300.58005      8.9260804     -88093.564      53.71807       0.811        
     81200   301.81659      8.9617667     -88445.761      53.747732      0.812        
     81300   295.85267      9.0578837     -89394.361      53.777394      0.813        
     81400   299.54292      9.2478176     -91268.863      53.807057      0.814        
     81500   305.23834      8.9993287     -88816.469      53.836719      0.815        
     81600   300.66425      9.4339905     -93106.247      53.866381      0.816        
     81700   301.57023      9.4927392     -93686.052      53.896043      0.817        
     81800   304.62111      9.203368      -90830.18       53.925705      0.818        
     81900   298.868        9.3508206     -92285.424      53.955367      0.819        
     82000   305.21334      9.4599123     -93362.076      53.985029      0.82         
     82100   296.12371      9.3096        -91878.609      54.014691      0.821        
     82200   299.18884      9.1273943     -90080.378      54.044353      0.822        
     82300   297.62547      9.2650464     -91438.899      54.074015      0.823        
     82400   294.58718      9.2392819     -91184.623      54.103678      0.824        
     82500   299.44095      9.2810338     -91596.682      54.13334       0.825        
     82600   293.80122      9.1680987     -90482.099      54.163002      0.826        
     82700   300.32388      9.3825429     -92598.499      54.192664      0.827        
     82800   297.10649      9.7385362     -96111.88       54.222326      0.828        
     82900   297.15362      9.6819233     -95553.154      54.251988      0.829        
     83000   302.90797      9.8294904     -97009.528      54.28165       0.83         
     83100   299.16318      9.7088832     -95819.227      54.311312      0.831        
     83200   300.28278      9.5187204     -93942.467      54.340974      0.832        
     83300   298.77181      9.9881189     -98575.07       54.370637      0.833        
     83400   303.19407      9.8844374     -97551.812      54.400299      0.834        
     83500   298.09835      9.8041261     -96759.202      54.429961      0.835        
     83600   298.80304      9.7743889     -96465.718      54.459623      0.836        
     83700   301.96252      9.9169261     -97872.451      54.489285      0.837        
     83800   298.69844      10.150709     -100179.71      54.518947      0.838        
     83900   300.80031      10.133418     -100009.06      54.548609      0.839        
     84000   303.86883      9.9892928     -98586.655      54.578271      0.84         
     84100   300.80569      10.09419      -99621.905      54.607933      0.841        
     84200   299.32767      10.05485      -99233.65       54.637595      0.842        
     84300   291.79564      10.367501     -102319.28      54.667258      0.843        
     84400   300.83974      10.193962     -100606.59      54.69692       0.844        
     84500   306.08723      10.325284     -101902.63      54.726582      0.845        
     84600   301.75876      10.148393     -100156.85      54.756244      0.846        
     84700   302.86073      10.048259     -99168.609      54.785906      0.847        
     84800   296.34123      10.163296     -100303.93      54.815568      0.848        
     84900   297.90881      10.356767     -102213.35      54.84523       0.849        
     85000   302.45937      10.536528     -103987.44      54.874892      0.85         
     85100   301.02332      10.345274     -102099.92      54.904554      0.851        
     85200   296.54607      10.19517      -100618.5       54.934216      0.852        
     85300   306.02688      10.22156      -100878.96      54.963879      0.853        
     85400   298.68705      10.594969     -104564.22      54.993541      0.854        
     85500   296.44316      10.396194     -102602.46      55.023203      0.855        
     85600   303.0321       10.404264     -102682.1       55.052865      0.856        
     85700   299.68416      10.516404     -103788.84      55.082527      0.857        
     85800   298.31345      10.454852     -103181.37      55.112189      0.858        
     85900   301.18904      10.562008     -104238.91      55.141851      0.859        
     86000   298.36159      10.698899     -105589.93      55.171513      0.86         
     86100   301.03273      10.607794     -104690.78      55.201175      0.861        
     86200   303.98014      10.663938     -105244.89      55.230838      0.862        
     86300   299.33973      10.81617      -106747.3       55.2605        0.863        
     86400   299.07715      10.747425     -106068.84      55.290162      0.864        
     86500   306.46105      10.77779      -106368.52      55.319824      0.865        
     86600   301.64018      10.806642     -106653.27      55.349486      0.866        
     86700   301.57114      10.84941      -107075.35      55.379148      0.867        
     86800   296.72644      10.673673     -105340.96      55.40881       0.868        
     86900   299.90831      10.914578     -107718.51      55.438472      0.869        
     87000   297.31148      11.000888     -108570.33      55.468134      0.87         
     87100   297.75683      11.029206     -108849.8       55.497796      0.871        
     87200   301.7892       11.057426     -109128.31      55.527459      0.872        
     87300   294.72276      10.892284     -107498.49      55.557121      0.873        
     87400   297.24986      10.917847     -107750.77      55.586783      0.874        
     87500   300.63719      11.031394     -108871.39      55.616445      0.875        
     87600   304.38267      10.926512     -107836.29      55.646107      0.876        
     87700   296.73461      11.104593     -109593.82      55.675769      0.877        
     87800   304.40201      11.258206     -111109.86      55.705431      0.878        
     87900   300.03058      11.211863     -110652.48      55.735093      0.879        
     88000   301.9398       11.451695     -113019.44      55.764755      0.88         
     88100   299.29599      11.193743     -110473.65      55.794418      0.881        
     88200   296.88248      11.240172     -110931.87      55.82408       0.882        
     88300   303.24072      11.224206     -110774.3       55.853742      0.883        
     88400   295.90527      11.471109     -113211.04      55.883404      0.884        
     88500   302.17144      11.521132     -113704.73      55.913066      0.885        
     88600   299.66198      11.517414     -113668.04      55.942728      0.886        
     88700   292.90593      11.466174     -113162.34      55.97239       0.887        
     88800   304.70501      11.474012     -113239.69      56.002052      0.888        
     88900   303.58362      11.154466     -110086.02      56.031714      0.889        
[...]
    978700   315.73965      1323.2236     -13059202       319.96512      9.787        
    978800   312.8772       1324.0573     -13067430       319.99478      9.788        
    978900   305.90813      1328.2137     -13108450       320.02444      9.789        
    979000   305.98058      1336.4287     -13189526       320.0541       9.79         
    979100   309.04724      1343.4358     -13258680       320.08376      9.791        
    979200   306.20801      1347.9675     -13303405       320.11343      9.792        
    979300   297.82255      1346.7852     -13291737       320.14309      9.793        
    979400   302.37543      1344.1274     -13265506       320.17275      9.794        
    979500   297.14683      1341.5304     -13239875       320.20241      9.795        
    979600   300.25566      1340.2874     -13227608       320.23207      9.796        
    979700   300.35957      1339.8033     -13222830       320.26174      9.797        
    979800   312.56174      1341.7193     -13241740       320.2914       9.798        
    979900   296.09183      1341.9977     -13244488       320.32106      9.799        
    980000   300.55254      1343.0409     -13254783       320.35072      9.8          
    980100   300.71517      1343.2015     -13256368       320.38038      9.801        
    980200   303.73759      1342.6128     -13250558       320.41005      9.802        
    980300   296.40882      1341.9763     -13244276       320.43971      9.803        
    980400   296.29632      1343.4416     -13258738       320.46937      9.804        
    980500   297.00937      1345.5555     -13279600       320.49903      9.805        
    980600   304.92987      1347.3106     -13296922       320.5287       9.806        
    980700   305.096        1347.0601     -13294449       320.55836      9.807        
    980800   302.97417      1345.9365     -13283361       320.58802      9.808        
    980900   307.35698      1345.7617     -13281635       320.61768      9.809        
    981000   298.44821      1344.4768     -13268954       320.64734      9.81         
    981100   304.29283      1346.103      -13285004       320.67701      9.811        
    981200   303.68841      1349.4394     -13317931       320.70667      9.812        
    981300   305.29775      1350.642      -13329800       320.73633      9.813        
    981400   300.37042      1348.5352     -13309008       320.76599      9.814        
    981500   303.34634      1346.0764     -13284741       320.79565      9.815        
    981600   300.28379      1345.3573     -13277645       320.82532      9.816        
    981700   302.59087      1344.8566     -13272703       320.85498      9.817        
    981800   297.03694      1347.8581     -13302325       320.88464      9.818        
    981900   301.93107      1350.3591     -13327008       320.9143       9.819        
    982000   300.87776      1351.0147     -13333478       320.94396      9.82         
    982100   298.78194      1349.7981     -13321472       320.97363      9.821        
    982200   302.35161      1349.2368     -13315932       321.00329      9.822        
    982300   301.28325      1348.3282     -13306964       321.03295      9.823        
    982400   294.76528      1349.5718     -13319238       321.06261      9.824        
    982500   296.18412      1352.796      -13351058       321.09228      9.825        
    982600   299.8216       1353.9635     -13362581       321.12194      9.826        
    982700   303.0201       1351.5206     -13338471       321.1516       9.827        
    982800   302.73989      1349.9803     -13323270       321.18126      9.828        
    982900   297.29094      1350.8048     -13331406       321.21092      9.829        
    983000   301.59832      1350.5047     -13328445       321.24059      9.83         
    983100   297.54004      1350.7397     -13330765       321.27025      9.831        
    983200   294.80191      1351.9213     -13342426       321.29991      9.832        
    983300   300.22777      1349.9993     -13323458       321.32957      9.833        
    983400   300.5683       1349.1174     -13314753       321.35923      9.834        
    983500   301.41357      1351.5658     -13338918       321.3889       9.835        
    983600   300.07794      1354.2425     -13365334       321.41856      9.836        
    983700   303.02717      1353.7065     -13360045       321.44822      9.837        
    983800   302.87121      1351.5067     -13338334       321.47788      9.838        
    983900   296.63035      1351.1844     -13335153       321.50754      9.839        
    984000   300.26995      1351.3376     -13336665       321.53721      9.84         
    984100   302.51354      1353.3049     -13356081       321.56687      9.841        
    984200   297.53655      1356.4015     -13386642       321.59653      9.842        
    984300   303.11071      1357.9221     -13401650       321.62619      9.843        
    984400   300.92424      1357.9034     -13401464       321.65586      9.844        
    984500   296.85345      1358.6532     -13408864       321.68552      9.845        
    984600   301.28446      1355.6069     -13378800       321.71518      9.846        
    984700   299.4203       1352.025      -13343449       321.74484      9.847        
    984800   295.30112      1350.1351     -13324798       321.7745       9.848        
    984900   296.53218      1350.6923     -13330296       321.80417      9.849        
    985000   296.89989      1353.8567     -13361527       321.83383      9.85         
    985100   297.94859      1358.6181     -13408519       321.86349      9.851        
    985200   306.12061      1362.0527     -13442415       321.89315      9.852        
    985300   299.52828      1362.6094     -13447909       321.92281      9.853        
    985400   298.08565      1360.6651     -13428720       321.95248      9.854        
    985500   298.86377      1358.6586     -13408918       321.98214      9.855        
    985600   298.99294      1357.7338     -13399791       322.0118       9.856        
    985700   295.21892      1358.5708     -13408051       322.04146      9.857        
    985800   297.97122      1359.6106     -13418314       322.07112      9.858        
    985900   299.23541      1357.4508     -13396998       322.10079      9.859        
    986000   299.78386      1355.9271     -13381960       322.13045      9.86         
    986100   291.556        1357.3623     -13396124       322.16011      9.861        
    986200   304.87649      1359.6951     -13419147       322.18977      9.862        
    986300   300.40148      1362.105      -13442931       322.21944      9.863        
    986400   299.95931      1362.0711     -13442596       322.2491       9.864        
    986500   298.59396      1362.2093     -13443961       322.27876      9.865        
    986600   305.40431      1362.4808     -13446640       322.30842      9.866        
    986700   301.09303      1362.4963     -13446793       322.33808      9.867        
    986800   300.23314      1363.3611     -13455328       322.36775      9.868        
    986900   295.68134      1365.1197     -13472683       322.39741      9.869        
    987000   295.32143      1363.6322     -13458003       322.42707      9.87         
    987100   301.72586      1359.536      -13417577       322.45673      9.871        
    987200   300.25314      1358.7562     -13409881       322.48639      9.872        
    987300   295.33951      1360.9117     -13431154       322.51606      9.873        
    987400   300.78076      1364.8245     -13469770       322.54572      9.874        
    987500   300.61035      1368.1991     -13503075       322.57538      9.875        
    987600   299.17107      1366.6329     -13487618       322.60504      9.876        
    987700   304.50506      1364.3108     -13464701       322.6347       9.877        
    987800   299.80299      1365.456      -13476003       322.66437      9.878        
    987900   301.65063      1366.9845     -13491088       322.69403      9.879        
    988000   298.95729      1369.1243     -13512206       322.72369      9.88         
    988100   304.45259      1368.7148     -13508165       322.75335      9.881        
    988200   299.53759      1367.514      -13496313       322.78302      9.882        
    988300   299.42105      1367.0149     -13491388       322.81268      9.883        
    988400   298.52802      1366.74       -13488675       322.84234      9.884        
    988500   298.33121      1366.3678     -13485002       322.872        9.885        
    988600   301.04442      1366.4082     -13485401       322.90166      9.886        
    988700   302.33127      1364.8331     -13469855       322.93133      9.887        
    988800   302.35906      1364.7047     -13468589       322.96099      9.888        
    988900   304.76888      1364.385      -13465433       322.99065      9.889        
    989000   306.633        1365.4987     -13476425       323.02031      9.89         
    989100   299.86313      1366.4858     -13486166       323.04997      9.891        
    989200   300.5591       1368.7821     -13508829       323.07964      9.892        
    989300   295.185        1370.0263     -13521108       323.1093       9.893        
    989400   299.0577       1371.2398     -13533084       323.13896      9.894        
    989500   296.56276      1370.1202     -13522035       323.16862      9.895        
    989600   300.26218      1370.2673     -13523487       323.19828      9.896        
    989700   304.03606      1371.6807     -13537436       323.22795      9.897        
    989800   302.01146      1372.2925     -13543474       323.25761      9.898        
    989900   298.08845      1370.0154     -13521000       323.28727      9.899        
    990000   299.6649       1369.8975     -13519837       323.31693      9.9          
    990100   302.20945      1372.5948     -13546458       323.3466       9.901        
    990200   296.19781      1372.8413     -13548890       323.37626      9.902        
    990300   300.13372      1372.9058     -13549527       323.40592      9.903        
    990400   301.25152      1371.5824     -13536466       323.43558      9.904        
    990500   299.42566      1370.934      -13530066       323.46524      9.905        
    990600   295.58796      1372.4634     -13545161       323.49491      9.906        
    990700   301.42126      1373.3165     -13553580       323.52457      9.907        
    990800   291.6587       1375.9118     -13579193       323.55423      9.908        
    990900   297.77882      1376.2661     -13582690       323.58389      9.909        
    991000   298.28922      1376.3587     -13583604       323.61355      9.91         
    991100   301.01839      1375.2332     -13572496       323.64322      9.911        
    991200   305.20559      1373.472      -13555115       323.67288      9.912        
    991300   300.66735      1375.1011     -13571193       323.70254      9.913        
    991400   298.86606      1377.7282     -13597120       323.7322       9.914        
    991500   295.85701      1377.4673     -13594545       323.76186      9.915        
    991600   297.60432      1373.7425     -13557784       323.79153      9.916        
    991700   297.59999      1372.4438     -13544967       323.82119      9.917        
    991800   305.09225      1373.6305     -13556679       323.85085      9.918        
    991900   300.12126      1376.9164     -13589108       323.88051      9.919        
    992000   302.95515      1378.6134     -13605857       323.91017      9.92         
    992100   296.01062      1378.9231     -13608913       323.93984      9.921        
    992200   299.021        1379.8997     -13618551       323.9695       9.922        
    992300   306.0398       1377.9154     -13598968       323.99916      9.923        
    992400   303.09463      1375.8362     -13578448       324.02882      9.924        
    992500   294.13463      1373.4344     -13554743       324.05849      9.925        
    992600   299.77228      1373.999      -13560316       324.08815      9.926        
    992700   298.43359      1375.786      -13577953       324.11781      9.927        
    992800   297.95354      1378.2029     -13601805       324.14747      9.928        
    992900   300.05875      1381.4311     -13633665       324.17713      9.929        
    993000   300.71932      1381.1323     -13630716       324.2068       9.93         
    993100   298.77071      1379.8363     -13617926       324.23646      9.931        
    993200   298.59118      1379.181      -13611458       324.26612      9.932        
    993300   296.48875      1377.8265     -13598091       324.29578      9.933        
    993400   296.03487      1380.3206     -13622705       324.32544      9.934        
    993500   298.96928      1382.1955     -13641208       324.35511      9.935        
    993600   295.71334      1381.3991     -13633349       324.38477      9.936        
    993700   300.07883      1379.6107     -13615699       324.41443      9.937        
    993800   303.4483       1379.634      -13615929       324.44409      9.938        
    993900   298.76652      1380.2593     -13622101       324.47375      9.939        
    994000   302.70689      1383.6802     -13655861       324.50342      9.94         
    994100   301.25809      1386.2072     -13680801       324.53308      9.941        
    994200   301.77411      1384.0614     -13659624       324.56274      9.942        
    994300   303.41882      1382.047      -13639743       324.5924       9.943        
    994400   299.65987      1382.6171     -13645369       324.62207      9.944        
    994500   295.11904      1383.0762     -13649900       324.65173      9.945        
    994600   307.73476      1382.0304     -13639580       324.68139      9.946        
    994700   297.45592      1380.4437     -13623920       324.71105      9.947        
    994800   306.72234      1378.8266     -13607961       324.74071      9.948        
    994900   302.07362      1380.6245     -13625704       324.77038      9.949        
    995000   298.41181      1383.5405     -13654484       324.80004      9.95         
    995100   302.4455       1385.293      -13671778       324.8297       9.951        
    995200   298.80164      1386.5466     -13684151       324.85936      9.952        
    995300   298.58078      1386.3991     -13682695       324.88902      9.953        
    995400   301.27806      1386.0577     -13679326       324.91869      9.954        
    995500   298.11892      1385.0369     -13669251       324.94835      9.955        
    995600   301.29928      1383.6338     -13655404       324.97801      9.956        
    995700   298.70539      1382.0768     -13640037       325.00767      9.957        
    995800   301.63226      1382.0449     -13639723       325.03733      9.958        
    995900   298.87842      1382.9409     -13648565       325.067        9.959        
    996000   298.73298      1383.2639     -13651753       325.09666      9.96         
    996100   302.20267      1384.0171     -13659187       325.12632      9.961        
    996200   302.48375      1383.6052     -13655121       325.15598      9.962        
    996300   298.10207      1384.4877     -13663831       325.18565      9.963        
    996400   302.8064       1383.6694     -13655755       325.21531      9.964        
    996500   304.03747      1386.6627     -13685297       325.24497      9.965        
    996600   301.87224      1391.8834     -13736821       325.27463      9.966        
    996700   299.54054      1392.4778     -13742688       325.30429      9.967        
    996800   299.47438      1391.4355     -13732400       325.33396      9.968        
    996900   297.35212      1390.8896     -13727013       325.36362      9.969        
    997000   298.2785       1387.4637     -13693202       325.39328      9.97         
    997100   301.56478      1384.4244     -13663207       325.42294      9.971        
    997200   299.73716      1382.6688     -13645880       325.4526       9.972        
    997300   303.75555      1383.7771     -13656818       325.48227      9.973        
    997400   291.85045      1386.4567     -13683263       325.51193      9.974        
    997500   294.72548      1389.5751     -13714040       325.54159      9.975        
    997600   299.44808      1392.177      -13739718       325.57125      9.976        
    997700   299.65064      1390.532      -13723484       325.60091      9.977        
    997800   300.9183       1388.9905     -13708271       325.63058      9.978        
    997900   299.27628      1389.9846     -13718082       325.66024      9.979        
    998000   300.72288      1390.0547     -13718773       325.6899       9.98         
    998100   300.45185      1389.443      -13712737       325.71956      9.981        
    998200   299.85275      1389.1866     -13710206       325.74923      9.982        
    998300   302.59401      1388.0937     -13699420       325.77889      9.983        
    998400   301.85932      1388.694      -13705344       325.80855      9.984        
    998500   297.69542      1389.9802     -13718038       325.83821      9.985        
    998600   300.23288      1392.5698     -13743595       325.86787      9.986        
    998700   302.10685      1394.4853     -13762500       325.89754      9.987        
    998800   298.46156      1395.268      -13770225       325.9272       9.988        
    998900   301.04548      1395.0819     -13768388       325.95686      9.989        
    999000   311.03464      1393.4964     -13752740       325.98652      9.99         
    999100   297.78904      1394.5608     -13763245       326.01618      9.991        
    999200   298.31892      1395.3551     -13771084       326.04585      9.992        
    999300   302.63973      1394.0443     -13758147       326.07551      9.993        
    999400   302.48513      1392.9015     -13746869       326.10517      9.994        
    999500   297.68853      1393.3072     -13750873       326.13483      9.995        
    999600   298.397        1395.2579     -13770125       326.16449      9.996        
    999700   300.64721      1396.9638     -13786961       326.19416      9.997        
    999800   297.97022      1399.0656     -13807704       326.22382      9.998        
    999900   296.13403      1397.34       -13790673       326.25348      9.999        
   1000000   300.97394      1394.5487     -13763126       326.28314      10           
WARNING: Bond/angle/dihedral extent > half of periodic box length (src/domain.cpp:940)
Loop time of 4514.2 on 4 procs for 1000000 steps with 2988 atoms

Performance: 19.140 ns/day, 1.254 hours/ns, 221.523 timesteps/s
290.0% CPU use with 1 MPI tasks x 4 OpenMP threads

MPI task timing breakdown:
Section |  min time  |  avg time  |  max time  |%varavg| %total
---------------------------------------------------------------
Pair    | 2780.5     | 2780.5     | 2780.5     |   0.0 | 61.59
Bond    | 421.53     | 421.53     | 421.53     |   0.0 |  9.34
Neigh   | 480.66     | 480.66     | 480.66     |   0.0 | 10.65
Comm    | 122.81     | 122.81     | 122.81     |   0.0 |  2.72
Output  | 3.0078     | 3.0078     | 3.0078     |   0.0 |  0.07
Modify  | 693.65     | 693.65     | 693.65     |   0.0 | 15.37
Other   |            | 12.06      |            |       |  0.27

Nlocal:           2988 ave        2988 max        2988 min
Histogram: 1 0 0 0 0 0 0 0 0 0
Nghost:          18871 ave       18871 max       18871 min
Histogram: 1 0 0 0 0 0 0 0 0 0
Neighs:         569999 ave      569999 max      569999 min
Histogram: 1 0 0 0 0 0 0 0 0 0

Total # of neighbors = 569999
Ave neighs/atom = 190.76272
Ave special neighs/atom = 12.156627
Neighbor list builds = 47792
Dangerous builds = 25
unfix 1
unfix 2
unfix def1

print "All done"
All done
Total wall time: 1:15:14
