units			real
dimension		3
processors		* * *
boundary		p p p
atom_style		full
pair_style		lj/cut 10.0
bond_style		harmonic
angle_style 	harmonic
read_data		PVA4_O2_GA_partial_linked.data
Reading data file ...
  orthogonal box = (29.685141 28.667642 29.457643) to (60.270857 59.253358 60.043359)
  1 by 1 by 1 MPI processor grid
  reading atoms ...
  3092 atoms
  scanning bonds ...
  4 = max bonds/atom
  scanning angles ...
  6 = max angles/atom
  reading bonds ...
  3101 bonds
  reading angles ...
  5792 angles
Finding 1-2 1-3 1-4 neighbors ...
  special bond factors lj:    0        0        0       
  special bond factors coul:  0        0        0       
     4 = max # of 1-2 neighbors
     7 = max # of 1-3 neighbors
    16 = max # of 1-4 neighbors
    20 = max # of special neighbors
  special bonds CPU = 0.006 seconds
  read_data CPU = 0.066 seconds

#output

thermo			100
thermo_style	custom step temp pe press vol lx density

#intial minimization
minimize		1.0e-5 1.0e-5 10000 10000
WARNING: Using 'neigh_modify every 1 delay 0 check yes' setting during minimization (src/min.cpp:187)
Generated 171 of 171 mixed pair_coeff terms from geometric mixing rule
Last active /omp style is angle_style harmonic/omp
Neighbor list info ...
  update every 1 steps, delay 0 steps, check yes
  max neighbors/atom: 2000, page size: 100000
  master list distance cutoff = 12
  ghost atom cutoff = 12
  binsize = 6, bins = 6 6 6
  1 neighbor lists, perpetual/occasional/extra = 1 0 0
  (1) pair lj/cut/omp, perpetual
      attributes: half, newton on, omp
      pair build: half/bin/newton/omp
      stencil: half/bin/3d
      bin: standard
WARNING: Inconsistent image flags (src/domain.cpp:819)
Per MPI rank memory allocation (min/avg/max) = 28.84 | 28.84 | 28.84 Mbytes
   Step          Temp          PotEng         Press          Volume           Lx          Density    
         0   0              156462.07     -362345.86      28612.509      30.585716      1.1453411    
       100   0             -1118.7956     -3325.933       28612.509      30.585716      1.1453411    
       200   0             -1403.4361     -3283.4699      28612.509      30.585716      1.1453411    
       300   0             -1471.3802     -3550.7118      28612.509      30.585716      1.1453411    
       400   0             -1506.5238     -3591.0212      28612.509      30.585716      1.1453411    
       500   0             -1528.3592     -3570.751       28612.509      30.585716      1.1453411    
       600   0             -1539.5667     -3679.1622      28612.509      30.585716      1.1453411    
       700   0             -1547.8088     -3672.8043      28612.509      30.585716      1.1453411    
       800   0             -1554.1467     -3670.5098      28612.509      30.585716      1.1453411    
       900   0             -1558.7284     -3724.9535      28612.509      30.585716      1.1453411    
      1000   0             -1563.1614     -3694.263       28612.509      30.585716      1.1453411    
      1100   0             -1566.7285     -3589.1442      28612.509      30.585716      1.1453411    
      1200   0             -1569.7665     -3546.8874      28612.509      30.585716      1.1453411    
      1254   0             -1571.0631     -3500.9621      28612.509      30.585716      1.1453411    
Loop time of 29.6768 on 4 procs for 1254 steps with 3092 atoms

333.6% CPU use with 1 MPI tasks x 4 OpenMP threads

Minimization stats:
  Stopping criterion = energy tolerance
  Energy initial, next-to-last, final = 
      156462.068701952  -1571.04761206522  -1571.06305567347
  Force two-norm initial, final = 23721.064 6.3965312
  Force max component initial, final = 4307.6002 2.4575734
  Final line search alpha, max atom move = 0.010121917 0.024875354
  Iterations, force evaluations = 1254 2460

MPI task timing breakdown:
Section |  min time  |  avg time  |  max time  |%varavg| %total
---------------------------------------------------------------
Pair    | 27.358     | 27.358     | 27.358     |   0.0 | 92.19
Bond    | 1.2447     | 1.2447     | 1.2447     |   0.0 |  4.19
Neigh   | 0.40456    | 0.40456    | 0.40456    |   0.0 |  1.36
Comm    | 0.27708    | 0.27708    | 0.27708    |   0.0 |  0.93
Output  | 0.003896   | 0.003896   | 0.003896   |   0.0 |  0.01
Modify  | 0.21443    | 0.21443    | 0.21443    |   0.0 |  0.72
Other   |            | 0.1744     |            |       |  0.59

Nlocal:           3092 ave        3092 max        3092 min
Histogram: 1 0 0 0 0 0 0 0 0 0
Nghost:          14206 ave       14206 max       14206 min
Histogram: 1 0 0 0 0 0 0 0 0 0
Neighs:    1.19219e+06 ave 1.19219e+06 max 1.19219e+06 min
Histogram: 1 0 0 0 0 0 0 0 0 0

Total # of neighbors = 1192186
Ave neighs/atom = 385.57115
Ave special neighs/atom = 11.730918
Neighbor list builds = 27
Dangerous builds = 0

timestep 1
# nvt for 200 ps
fix			1 all nvt temp 300 300 100
run			200000
Generated 171 of 171 mixed pair_coeff terms from geometric mixing rule
Last active /omp style is angle_style harmonic/omp
WARNING: Inconsistent image flags (src/domain.cpp:819)
Per MPI rank memory allocation (min/avg/max) = 27.35 | 27.35 | 27.35 Mbytes
   Step          Temp          PotEng         Press          Volume           Lx          Density    
      1254   0             -1571.0631     -3500.9621      28612.509      30.585716      1.1453411    
      1300   0.033083462   -1571.3558     -3515.7094      28612.509      30.585716      1.1453411    
      1400   0.11518701    -1571.8534     -3578.927       28612.509      30.585716      1.1453411    
      1500   0.18821124    -1571.9829     -3586.9394      28612.509      30.585716      1.1453411    
      1600   0.27853307    -1571.8819     -3586.148       28612.509      30.585716      1.1453411    
      1700   0.41578392    -1571.7125     -3594.4217      28612.509      30.585716      1.1453411    
      1800   0.59172734    -1571.1344     -3600.5093      28612.509      30.585716      1.1453411    
      1900   0.87356568    -1570.431      -3568.2302      28612.509      30.585716      1.1453411    
      2000   1.2461256     -1568.8839     -3603.9023      28612.509      30.585716      1.1453411    
      2100   1.9501959     -1567.6176     -3504.4642      28612.509      30.585716      1.1453411    
      2200   2.9598691     -1564.9136     -3455.3155      28612.509      30.585716      1.1453411    
      2300   4.2584253     -1558.7867     -3304.0664      28612.509      30.585716      1.1453411    
      2400   6.4459646     -1551.5975     -3018.7858      28612.509      30.585716      1.1453411    
      2500   9.0977375     -1535.4944     -2843.0193      28612.509      30.585716      1.1453411    
      2600   12.81382      -1511.8901     -2362.1765      28612.509      30.585716      1.1453411    
      2700   16.966268     -1470.0616     -1734.3313      28612.509      30.585716      1.1453411    
      2800   25.457843     -1436.0863     -1174.8325      28612.509      30.585716      1.1453411    
      2900   36.848393     -1372.7679     -425.06437      28612.509      30.585716      1.1453411    
      3000   52.649549     -1282.2579      124.96157      28612.509      30.585716      1.1453411    
      3100   73.785394     -1144.3105      2318.9902      28612.509      30.585716      1.1453411    
      3200   103.28895     -959.90506      2418.5724      28612.509      30.585716      1.1453411    
      3300   144.63067     -739.85112      4322.7776      28612.509      30.585716      1.1453411    
      3400   200.99497     -488.45942      6018.5703      28612.509      30.585716      1.1453411    
      3500   249.89432     -83.651229      8833.2978      28612.509      30.585716      1.1453411    
      3600   296.12799      318.30069      6700.1262      28612.509      30.585716      1.1453411    
      3700   328.44213      592.43238      8432.1792      28612.509      30.585716      1.1453411    
      3800   321.70332      677.64543      12102.638      28612.509      30.585716      1.1453411    
      3900   289.43618      698.89925      8660.1389      28612.509      30.585716      1.1453411    
      4000   283.31173      664.98895      7393.1618      28612.509      30.585716      1.1453411    
      4100   295.29236      707.72303      8982.1971      28612.509      30.585716      1.1453411    
      4200   308.90546      792.18541      8181.3514      28612.509      30.585716      1.1453411    
      4300   320.79202      731.10369      6623.3602      28612.509      30.585716      1.1453411    
      4400   299.27857      746.25445      6769.1554      28612.509      30.585716      1.1453411    
      4500   286.98816      711.01537      5080.7841      28612.509      30.585716      1.1453411    
      4600   296.62999      701.33205      5127.9589      28612.509      30.585716      1.1453411    
      4700   310.28297      777.22489      5410.4571      28612.509      30.585716      1.1453411    
      4800   312.15905      851.60866      7568.1174      28612.509      30.585716      1.1453411    
      4900   293.75876      951.34608      5312.907       28612.509      30.585716      1.1453411    
      5000   295.23662      855.67499      3610.432       28612.509      30.585716      1.1453411    
      5100   288.84628      885.75694      4751.2185      28612.509      30.585716      1.1453411    
      5200   303.67186      825.48062      4293.9091      28612.509      30.585716      1.1453411    
      5300   302.87518      905.39737      5117.6403      28612.509      30.585716      1.1453411    
      5400   309.20939      926.69628      3836.5951      28612.509      30.585716      1.1453411    
      5500   308.26252      929.40732      4836.6246      28612.509      30.585716      1.1453411    
      5600   291.76091      986.19719      4845.7444      28612.509      30.585716      1.1453411    
      5700   298.03549      874.88954      2231.4507      28612.509      30.585716      1.1453411    
      5800   296.10795      922.83816      3246.1418      28612.509      30.585716      1.1453411    
      5900   300.39936      983.35708      4740.0662      28612.509      30.585716      1.1453411    
      6000   307.5677       968.75344      5153.7005      28612.509      30.585716      1.1453411    
      6100   306.61551      933.31144      4541.0382      28612.509      30.585716      1.1453411    
      6200   300.67474      869.33723      3966.0535      28612.509      30.585716      1.1453411    
      6300   293.63971      883.34094      2868.0773      28612.509      30.585716      1.1453411    
      6400   299.48544      855.75906      4230.4119      28612.509      30.585716      1.1453411    
      6500   297.66298      934.03862      4256.4248      28612.509      30.585716      1.1453411    
      6600   307.3612       916.72481      5660.5517      28612.509      30.585716      1.1453411    
      6700   301.70314      931.20867      3220.6335      28612.509      30.585716      1.1453411    
      6800   294.90061      942.58488      3316.1515      28612.509      30.585716      1.1453411    
      6900   299.02628      881.74416      3591.2403      28612.509      30.585716      1.1453411    
      7000   300.44273      868.94095      2139.131       28612.509      30.585716      1.1453411    
      7100   301.59039      888.01627      2146.7286      28612.509      30.585716      1.1453411    
      7200   296.78364      970.59328      2005.6812      28612.509      30.585716      1.1453411    
      7300   306.34274      915.60697      1367.5443      28612.509      30.585716      1.1453411    
      7400   301.88872      938.61339      1760.9425      28612.509      30.585716      1.1453411    
      7500   298.3405       934.65458      2802.723       28612.509      30.585716      1.1453411    
      7600   297.29122      937.91732      1399.6905      28612.509      30.585716      1.1453411    
      7700   294.18382      996.39701      2123.4376      28612.509      30.585716      1.1453411    
      7800   297.8096       1012.707       1602.4236      28612.509      30.585716      1.1453411    
      7900   298.29902      1028.1447      4053.4259      28612.509      30.585716      1.1453411    
      8000   299.4496       1015.0594      1253.9915      28612.509      30.585716      1.1453411    
      8100   301.71989      972.52982      2803.0183      28612.509      30.585716      1.1453411    
      8200   300.34888      939.47488      1965.3428      28612.509      30.585716      1.1453411    
      8300   292.02003      974.98765      3088.9698      28612.509      30.585716      1.1453411    
      8400   295.09234      953.7859       1614.8177      28612.509      30.585716      1.1453411    
      8500   303.95178      899.03366      1140.4136      28612.509      30.585716      1.1453411    
      8600   296.47551      998.82445      1119.7146      28612.509      30.585716      1.1453411    
      8700   302.4685       976.33875      1938.2025      28612.509      30.585716      1.1453411    
      8800   304.7063       967.24256      1154.0879      28612.509      30.585716      1.1453411    
      8900   304.51211      940.22359      1886.5125      28612.509      30.585716      1.1453411    
      9000   299.18788      918.55778      3925.6869      28612.509      30.585716      1.1453411    
      9100   294.77939      937.92626      4613.3561      28612.509      30.585716      1.1453411    
      9200   298.45727      929.85932      1665.8944      28612.509      30.585716      1.1453411    
      9300   292.08807      1058.8499      3231.4994      28612.509      30.585716      1.1453411    
      9400   308.49984      990.12059      1836.0755      28612.509      30.585716      1.1453411    
      9500   301.53282      987.61323      1924.9059      28612.509      30.585716      1.1453411    
      9600   290.65827      972.95613      2364.3845      28612.509      30.585716      1.1453411    
      9700   295.86366      896.43577      1007.2667      28612.509      30.585716      1.1453411    
      9800   296.27423      975.57662      688.95554      28612.509      30.585716      1.1453411    
      9900   307.5698       980.00123      2328.9052      28612.509      30.585716      1.1453411    
     10000   306.10496      1038.0644      1951.991       28612.509      30.585716      1.1453411    
     10100   301.32651      1058.8868      2391.5211      28612.509      30.585716      1.1453411    
     10200   302.82952      970.74938      1964.5663      28612.509      30.585716      1.1453411    
     10300   293.46145      1018.774       1191.7833      28612.509      30.585716      1.1453411    
     10400   300.42298      978.86983      3461.0904      28612.509      30.585716      1.1453411    
     10500   306.20643      961.92804      1244.3724      28612.509      30.585716      1.1453411    
     10600   301.32282      1028.8318      718.20135      28612.509      30.585716      1.1453411    
     10700   298.13989      1041.6765      2613.3001      28612.509      30.585716      1.1453411    
     10800   300.62819      983.95693      1172.453       28612.509      30.585716      1.1453411    
     10900   292.77031      1025.905       2429.8823      28612.509      30.585716      1.1453411    
     11000   306.89841      912.88778      2369.5589      28612.509      30.585716      1.1453411    
     11100   298.08566      1014.3742      3167.8198      28612.509      30.585716      1.1453411    
     11200   299.65142      1022.5125      2844.7221      28612.509      30.585716      1.1453411    
     11300   302.81103      1011.5242      117.13666      28612.509      30.585716      1.1453411    
     11400   301.853        1039.8584     -1016.6613      28612.509      30.585716      1.1453411    
     11500   301.18877      1031.236      -403.62535      28612.509      30.585716      1.1453411    
     11600   296.98535      1013.5991     -742.19563      28612.509      30.585716      1.1453411    
     11700   295.81294      968.02437     -464.14365      28612.509      30.585716      1.1453411    
     11800   288.27028      1056.0714      252.82587      28612.509      30.585716      1.1453411    
     11900   297.56586      1062.788      -486.8365       28612.509      30.585716      1.1453411    
     12000   305.89502      1063.4338     -423.1192       28612.509      30.585716      1.1453411    
     12100   307.60265      1021.1736     -29.786462      28612.509      30.585716      1.1453411    
     12200   299.60329      973.1134       1285.4437      28612.509      30.585716      1.1453411    
     12300   291.40105      995.92095     -376.16093      28612.509      30.585716      1.1453411    
     12400   295.18432      1009.6646     -263.07573      28612.509      30.585716      1.1453411    
     12500   303.35488      1035.9981      156.89056      28612.509      30.585716      1.1453411    
     12600   301.73439      1081.8855      1233.1         28612.509      30.585716      1.1453411    
     12700   302.09487      1008.9029      1792.0296      28612.509      30.585716      1.1453411    
     12800   297.76772      962.04367      1058.6744      28612.509      30.585716      1.1453411    
     12900   290.44283      1017.8715      1585.1182      28612.509      30.585716      1.1453411    
     13000   302.08502      985.99918      1246.4493      28612.509      30.585716      1.1453411    
     13100   301.29922      1066.2517      378.39311      28612.509      30.585716      1.1453411    
     13200   306.01972      1044.2639      566.9807       28612.509      30.585716      1.1453411    
     13300   293.75521      1089.6617     -2.5277413      28612.509      30.585716      1.1453411    
     13400   300.52372      950.95833      873.27158      28612.509      30.585716      1.1453411    
     13500   297.51229      974.70447      1848.2263      28612.509      30.585716      1.1453411    
     13600   301.95178      987.0949       1892.6404      28612.509      30.585716      1.1453411    
     13700   304.04237      1036.7292      125.18737      28612.509      30.585716      1.1453411    
     13800   302.19298      1072.3687      2350.9748      28612.509      30.585716      1.1453411    
     13900   300.47205      1035.8051      2343.0068      28612.509      30.585716      1.1453411    
     14000   297.74794      978.99263      425.184        28612.509      30.585716      1.1453411    
     14100   293.51519      970.99469      893.80791      28612.509      30.585716      1.1453411    
     14200   294.04206      1002.8807      1529.6925      28612.509      30.585716      1.1453411    
     14300   298.60263      1054.2197      1011.8246      28612.509      30.585716      1.1453411    
     14400   304.37247      1046.1239      1108.0662      28612.509      30.585716      1.1453411    
     14500   310.50462      971.23371     -1408.9643      28612.509      30.585716      1.1453411    
     14600   298.14191      1006.0409      599.66269      28612.509      30.585716      1.1453411    
     14700   291.65685      1000.3854     -1134.9343      28612.509      30.585716      1.1453411    
     14800   291.07432      1017.0923     -1262.728       28612.509      30.585716      1.1453411    
     14900   302.21532      971.00018     -1135.5842      28612.509      30.585716      1.1453411    
     15000   298.63125      1069.9994      970.71579      28612.509      30.585716      1.1453411    
     15100   303.81974      1028.8         171.68593      28612.509      30.585716      1.1453411    
     15200   296.89029      987.02222     -362.73396      28612.509      30.585716      1.1453411    
     15300   296.3027       903.07779     -2025.1395      28612.509      30.585716      1.1453411    
     15400   290.67536      962.97007      569.82689      28612.509      30.585716      1.1453411    
     15500   304.17112      949.81464      899.72305      28612.509      30.585716      1.1453411    
     15600   311.33767      979.30482      1004.3907      28612.509      30.585716      1.1453411    
     15700   301.02256      1082.2242      1255.2053      28612.509      30.585716      1.1453411    
     15800   302.66132      983.087        808.18919      28612.509      30.585716      1.1453411    
     15900   294.56888      953.3734       1494.7503      28612.509      30.585716      1.1453411    
     16000   293.90998      937.62389     -133.59986      28612.509      30.585716      1.1453411    
     16100   302.61637      952.1534      -379.42227      28612.509      30.585716      1.1453411    
     16200   298.98272      1085.2056      1625.1526      28612.509      30.585716      1.1453411    
     16300   307.95352      1005.1056     -878.38133      28612.509      30.585716      1.1453411    
     16400   300.2742       967.39798     -1454.6893      28612.509      30.585716      1.1453411    
     16500   289.19187      970.08454     -1425.6058      28612.509      30.585716      1.1453411    
     16600   298.06328      901.41876     -2519.4583      28612.509      30.585716      1.1453411    
     16700   300.28138      983.4353      -1598.0604      28612.509      30.585716      1.1453411    
     16800   301.33757      1053.5653     -2735.4719      28612.509      30.585716      1.1453411    
     16900   300.14563      1048.7909     -324.31839      28612.509      30.585716      1.1453411    
     17000   301.09398      970.95324      2012.0139      28612.509      30.585716      1.1453411    
     17100   303.99228      882.83188      427.23426      28612.509      30.585716      1.1453411    
     17200   295.03705      966.31671     -117.34799      28612.509      30.585716      1.1453411    
     17300   300.58101      997.57462      2878.5569      28612.509      30.585716      1.1453411    
     17400   304.71851      1042.3924      153.35088      28612.509      30.585716      1.1453411    
     17500   306.11796      1017.5901      2410.6868      28612.509      30.585716      1.1453411    
     17600   302.23474      967.91575      1014.5756      28612.509      30.585716      1.1453411    
     17700   297.47224      926.74711     -368.02534      28612.509      30.585716      1.1453411    
     17800   303.45087      865.55258     -523.22484      28612.509      30.585716      1.1453411    
     17900   302.36941      927.74113      1120.127       28612.509      30.585716      1.1453411    
     18000   296.95205      1032.9465     -171.43025      28612.509      30.585716      1.1453411    
     18100   294.92329      1078.2145     -1189.5393      28612.509      30.585716      1.1453411    
     18200   300.93794      1034.5261     -671.56649      28612.509      30.585716      1.1453411    
     18300   306.02232      975.85891      2123.0185      28612.509      30.585716      1.1453411    
     18400   304.47482      949.27697      623.64098      28612.509      30.585716      1.1453411    
     18500   296.04096      971.38925      688.08964      28612.509      30.585716      1.1453411    
     18600   296.08014      974.67006     -822.85713      28612.509      30.585716      1.1453411    
     18700   297.28908      1049.6206     -2871.8708      28612.509      30.585716      1.1453411    
     18800   305.19786      1050.6301     -1091.4354      28612.509      30.585716      1.1453411    
     18900   300.20501      1069.0945     -1603.9544      28612.509      30.585716      1.1453411    
     19000   294.05225      1019.9162     -1150.1893      28612.509      30.585716      1.1453411    
     19100   291.88503      975.99888      488.44141      28612.509      30.585716      1.1453411    
     19200   299.95015      928.11771      2339.539       28612.509      30.585716      1.1453411    
     19300   303.41138      980.45592      1188.4268      28612.509      30.585716      1.1453411    
     19400   301.38243      1081.1025      202.08876      28612.509      30.585716      1.1453411    
     19500   301.58257      1075.866      -1821.2607      28612.509      30.585716      1.1453411    
     19600   300.6562       1011.9708     -1341.702       28612.509      30.585716      1.1453411    
     19700   290.99251      1008.5171     -1488.1737      28612.509      30.585716      1.1453411    
     19800   287.23967      1015.9208      885.75085      28612.509      30.585716      1.1453411    
     19900   295.18781      1014.3638      477.43971      28612.509      30.585716      1.1453411    
     20000   306.70914      991.83966     -13.243829      28612.509      30.585716      1.1453411    
     20100   303.34992      1035.4238      517.23473      28612.509      30.585716      1.1453411    
     20200   299.44714      1015.0026      2090.1144      28612.509      30.585716      1.1453411    
     20300   302.87954      903.29423     -857.7955       28612.509      30.585716      1.1453411    
     20400   297.27979      934.77979     -37.984528      28612.509      30.585716      1.1453411    
     20500   300.37346      930.60338     -930.28581      28612.509      30.585716      1.1453411    
     20600   298.08508      1002.1702     -1192.2307      28612.509      30.585716      1.1453411    
     20700   299.03903      1048.7312      891.98638      28612.509      30.585716      1.1453411    
     20800   302.36354      1025.0515      214.41698      28612.509      30.585716      1.1453411    
     20900   302.83865      973.95257     -1746.1288      28612.509      30.585716      1.1453411    
     21000   296.24301      973.41724     -1370.8225      28612.509      30.585716      1.1453411    
     21100   301.66074      916.33506     -1108.2477      28612.509      30.585716      1.1453411    
     21200   306.69848      918.95335      1004.1842      28612.509      30.585716      1.1453411    
     21300   307.15306      958.43542      1459.0292      28612.509      30.585716      1.1453411    
     21400   297.11184      1062.7041      652.40265      28612.509      30.585716      1.1453411    
     21500   300.26991      1026.6982      1580.689       28612.509      30.585716      1.1453411    
     21600   299.35411      1013.694       1758.2007      28612.509      30.585716      1.1453411    
     21700   302.18796      980.96478      205.88789      28612.509      30.585716      1.1453411    
     21800   298.93517      1029.9823      1864.5259      28612.509      30.585716      1.1453411    
     21900   302.95861      1002.1759      273.71054      28612.509      30.585716      1.1453411    
     22000   299.80216      991.00625     -928.97098      28612.509      30.585716      1.1453411    
     22100   300.09464      958.30672     -852.22636      28612.509      30.585716      1.1453411    
     22200   297.36012      989.77442     -1414.5959      28612.509      30.585716      1.1453411    
     22300   300.83583      978.98458     -76.739935      28612.509      30.585716      1.1453411    
     22400   300.78737      991.99303     -246.68472      28612.509      30.585716      1.1453411    
     22500   301.29051      982.62432     -939.18009      28612.509      30.585716      1.1453411    
     22600   299.22633      1004.259       490.0002       28612.509      30.585716      1.1453411    
     22700   299.86974      1007.634      -100.64628      28612.509      30.585716      1.1453411    
     22800   302.52613      973.40093     -506.55348      28612.509      30.585716      1.1453411    
     22900   297.70341      991.89401      225.02315      28612.509      30.585716      1.1453411    
     23000   293.41909      1019.3311     -756.6944       28612.509      30.585716      1.1453411    
     23100   298.40691      997.44318      188.67206      28612.509      30.585716      1.1453411    
     23200   291.48271      1074.855       2095.6517      28612.509      30.585716      1.1453411    
     23300   300.21164      985.39386     -1316.5245      28612.509      30.585716      1.1453411    
     23400   295.3001       1016.3553     -1319.4275      28612.509      30.585716      1.1453411    
     23500   298.84487      993.09596     -1445.3408      28612.509      30.585716      1.1453411    
     23600   304.66743      966.21624      1788.6747      28612.509      30.585716      1.1453411    
     23700   303.61513      988.57113     -2356.1603      28612.509      30.585716      1.1453411    
     23800   299.76723      1022.1306      28.214417      28612.509      30.585716      1.1453411    
     23900   297.50641      1038.1959     -248.98577      28612.509      30.585716      1.1453411    
     24000   300.25972      1003.2024     -207.90339      28612.509      30.585716      1.1453411    
     24100   302.13983      979.56037      692.00611      28612.509      30.585716      1.1453411    
     24200   302.6092       984.7598      -3292.3417      28612.509      30.585716      1.1453411    
     24300   305.69023      968.0936      -1241.4808      28612.509      30.585716      1.1453411    
     24400   299.97         1006.2251     -1456.1553      28612.509      30.585716      1.1453411    
     24500   295.30286      1045.1166     -1448.3686      28612.509      30.585716      1.1453411    
     24600   297.50228      1039.1228     -1051.0197      28612.509      30.585716      1.1453411    
     24700   304.22296      986.98183      813.60926      28612.509      30.585716      1.1453411    
     24800   300.96265      1012.6699     -1282.6209      28612.509      30.585716      1.1453411    
     24900   298.55686      1019.8589     -1030.6303      28612.509      30.585716      1.1453411    
     25000   296.6107       1007.0277      849.72448      28612.509      30.585716      1.1453411    
     25100   300.58771      943.20664     -436.36066      28612.509      30.585716      1.1453411    
     25200   287.97998      1067.1578      63.655351      28612.509      30.585716      1.1453411    
     25300   304.5552       988.07274     -370.82495      28612.509      30.585716      1.1453411    
     25400   305.20314      1036.7794     -302.80916      28612.509      30.585716      1.1453411    
     25500   297.8121       1069.2964     -2302.7897      28612.509      30.585716      1.1453411    
     25600   295.01251      1008.381      -2024.8151      28612.509      30.585716      1.1453411    
     25700   293.63624      982.34771      354.4735       28612.509      30.585716      1.1453411    
     25800   299.44738      981.95589      416.48641      28612.509      30.585716      1.1453411    
     25900   306.35083      986.59084     -1846.3405      28612.509      30.585716      1.1453411    
     26000   297.48497      1071.9337     -994.47821      28612.509      30.585716      1.1453411    
     26100   298.37676      1020.449      -815.80523      28612.509      30.585716      1.1453411    
     26200   295.31718      1005.3079     -579.93391      28612.509      30.585716      1.1453411    
     26300   294.40291      1015.1018      947.98033      28612.509      30.585716      1.1453411    
     26400   301.4071       1004.1754      519.68247      28612.509      30.585716      1.1453411    
     26500   301.43817      1046.8756      351.03273      28612.509      30.585716      1.1453411    
     26600   297.98883      1052.3666     -2443.4773      28612.509      30.585716      1.1453411    
     26700   302.07737      959.11926      18.7589        28612.509      30.585716      1.1453411    
     26800   299.98708      951.01856      713.57492      28612.509      30.585716      1.1453411    
     26900   298.66752      979.05003     -1268.8702      28612.509      30.585716      1.1453411    
     27000   300.74472      984.37725     -433.15535      28612.509      30.585716      1.1453411    
     27100   299.88847      1027.1211      678.75689      28612.509      30.585716      1.1453411    
     27200   289.54123      1162.2552     -1242.915       28612.509      30.585716      1.1453411    
     27300   305.3643       1030.2881     -761.32708      28612.509      30.585716      1.1453411    
     27400   302.56657      993.44661     -2152.9079      28612.509      30.585716      1.1453411    
     27500   293.12324      1022.4736     -2313.9564      28612.509      30.585716      1.1453411    
     27600   296.63506      989.10542     -930.27809      28612.509      30.585716      1.1453411    
     27700   303.12078      970.29208     -2754.7664      28612.509      30.585716      1.1453411    
     27800   296.30695      1060.6726     -3016.6743      28612.509      30.585716      1.1453411    
     27900   300.68134      1032.6626     -676.97522      28612.509      30.585716      1.1453411    
     28000   301.32341      1012.1238     -1290.1215      28612.509      30.585716      1.1453411    
     28100   301.7574       969.31581     -2609.0587      28612.509      30.585716      1.1453411    
     28200   300.56063      968.80068     -904.2964       28612.509      30.585716      1.1453411    
     28300   295.43837      1033.6686     -1282.3262      28612.509      30.585716      1.1453411    
     28400   300.23757      1035.3341     -1775.1966      28612.509      30.585716      1.1453411    
     28500   306.04628      997.3615      -667.21007      28612.509      30.585716      1.1453411    
     28600   303.96821      990.77881     -932.99727      28612.509      30.585716      1.1453411    
     28700   299.38614      974.20941     -211.90094      28612.509      30.585716      1.1453411    
     28800   299.45599      932.36544     -267.01062      28612.509      30.585716      1.1453411    
     28900   297.17052      954.33813     -1289.2823      28612.509      30.585716      1.1453411    
     29000   302.91014      960.12759     -410.40198      28612.509      30.585716      1.1453411    
     29100   303.95718      997.04113     -816.50722      28612.509      30.585716      1.1453411    
     29200   302.07763      1011.0267     -1808.9087      28612.509      30.585716      1.1453411    
     29300   300.05794      989.22508     -1177.6743      28612.509      30.585716      1.1453411    
     29400   298.06048      971.03835     -501.00414      28612.509      30.585716      1.1453411    
     29500   294.99795      1011.5396     -2120.3577      28612.509      30.585716      1.1453411    
     29600   299.69897      1030.3298     -961.41795      28612.509      30.585716      1.1453411    
     29700   303.79333      1018.9638     -598.04203      28612.509      30.585716      1.1453411    
     29800   298.67414      1037.3214     -1035.6815      28612.509      30.585716      1.1453411    
     29900   296.93419      1013.5449     -1020.4001      28612.509      30.585716      1.1453411    
     30000   296.67227      1008.8364     -2447.1102      28612.509      30.585716      1.1453411    
     30100   296.32148      1030.7887     -1849.4031      28612.509      30.585716      1.1453411    
     30200   303.26569      1020.9548      535.48317      28612.509      30.585716      1.1453411    
     30300   304.50518      1040.1815     -1071.3579      28612.509      30.585716      1.1453411    
     30400   300.50825      1024.2668     -347.73696      28612.509      30.585716      1.1453411    
     30500   297.42237      987.47568      517.0396       28612.509      30.585716      1.1453411    
     30600   293.29934      1010.112       345.57796      28612.509      30.585716      1.1453411    
     30700   301.35768      974.8249       1694.6371      28612.509      30.585716      1.1453411    
     30800   302.6333       1031.9094     -253.12104      28612.509      30.585716      1.1453411    
     30900   305.63057      1020.7018      1773.8003      28612.509      30.585716      1.1453411    
     31000   304.35436      996.04364     -1246.2838      28612.509      30.585716      1.1453411    
     31100   302.09436      957.45711     -1979.0468      28612.509      30.585716      1.1453411    
     31200   295.11465      983.68966     -687.32075      28612.509      30.585716      1.1453411    
     31300   294.7299       1007.0318     -1767.6271      28612.509      30.585716      1.1453411    
     31400   296.62512      1063.849      -661.44152      28612.509      30.585716      1.1453411    
     31500   303.77488      1058.198      -500.8485       28612.509      30.585716      1.1453411    
     31600   304.49614      1038.9775     -1749.5888      28612.509      30.585716      1.1453411    
     31700   298.77656      1007.9766      902.812        28612.509      30.585716      1.1453411    
     31800   298.04228      953.94397      821.86949      28612.509      30.585716      1.1453411    
     31900   294.86604      976.67615      880.23264      28612.509      30.585716      1.1453411    
     32000   302.28247      975.17048      2217.2384      28612.509      30.585716      1.1453411    
     32100   302.49848      1038.8921      249.98894      28612.509      30.585716      1.1453411    
     32200   302.56472      1049.5172      1520.0347      28612.509      30.585716      1.1453411    
     32300   305.27003      961.10588      281.94642      28612.509      30.585716      1.1453411    
     32400   295.76295      983.17769     -819.26431      28612.509      30.585716      1.1453411    
     32500   298.12183      955.97747      1522.4012      28612.509      30.585716      1.1453411    
     32600   298.87604      1000.6749     -1614.2132      28612.509      30.585716      1.1453411    
     32700   307.16185      1024.0039     -1296.3525      28612.509      30.585716      1.1453411    
     32800   297.69913      1093.5047      570.41502      28612.509      30.585716      1.1453411    
     32900   305.38055      969.33775     -627.50321      28612.509      30.585716      1.1453411    
     33000   303.27726      960.93809      1309.5154      28612.509      30.585716      1.1453411    
     33100   297.06407      1015.934       652.42065      28612.509      30.585716      1.1453411    
     33200   299.53805      1015.5929      776.78492      28612.509      30.585716      1.1453411    
     33300   301.06227      1099.2128      17.549166      28612.509      30.585716      1.1453411    
     33400   310.13677      1027.1214     -2179.8655      28612.509      30.585716      1.1453411    
     33500   294.23737      1068.0312     -907.97961      28612.509      30.585716      1.1453411    
     33600   293.16711      1038.868      -1587.4194      28612.509      30.585716      1.1453411    
     33700   299.51899      955.75773      436.49784      28612.509      30.585716      1.1453411    
     33800   305.01953      927.1687       70.033671      28612.509      30.585716      1.1453411    
     33900   305.53631      998.50791     -412.62987      28612.509      30.585716      1.1453411    
     34000   306.84731      1023.6455     -2641.5949      28612.509      30.585716      1.1453411    
     34100   301.46968      997.6165      -285.38773      28612.509      30.585716      1.1453411    
     34200   302.35343      904.05093     -154.37038      28612.509      30.585716      1.1453411    
     34300   303.68595      910.01013     -1333.1925      28612.509      30.585716      1.1453411    
     34400   303.21364      972.75045     -1106.4986      28612.509      30.585716      1.1453411    
     34500   308.54716      975.79904     -262.83041      28612.509      30.585716      1.1453411    
     34600   301.29558      1027.7283      1279.4581      28612.509      30.585716      1.1453411    
     34700   300.43384      915.44586      378.73963      28612.509      30.585716      1.1453411    
     34800   292.82376      975.75511      1382.2702      28612.509      30.585716      1.1453411    
     34900   302.08122      973.71921      1261.361       28612.509      30.585716      1.1453411    
     35000   297.08661      1057.1642     -1104.6112      28612.509      30.585716      1.1453411    
     35100   305.52717      972.61321      1015.7284      28612.509      30.585716      1.1453411    
     35200   302.46974      934.99941      473.49166      28612.509      30.585716      1.1453411    
     35300   293.5408       934.61741      613.48679      28612.509      30.585716      1.1453411    
     35400   295.53069      939.98428      1461.5601      28612.509      30.585716      1.1453411    
     35500   293.35729      987.63216      394.82546      28612.509      30.585716      1.1453411    
     35600   299.67193      976.21978     -1722.0536      28612.509      30.585716      1.1453411    
     35700   296.81262      1048.4794     -1707.7786      28612.509      30.585716      1.1453411    
     35800   304.92227      975.92284     -485.89556      28612.509      30.585716      1.1453411    
     35900   300.22608      902.21953      580.85422      28612.509      30.585716      1.1453411    
     36000   296.25637      909.93015     -178.78331      28612.509      30.585716      1.1453411    
     36100   295.5719       988.22784     -1872.2327      28612.509      30.585716      1.1453411    
     36200   300.58691      998.1319      -476.21693      28612.509      30.585716      1.1453411    
     36300   302.41592      992.31819     -89.390631      28612.509      30.585716      1.1453411    
     36400   294.41538      1042.7         1141.3126      28612.509      30.585716      1.1453411    
     36500   297.25696      927.23444      63.959541      28612.509      30.585716      1.1453411    
     36600   289.45344      972.20347     -641.82688      28612.509      30.585716      1.1453411    
     36700   301.13939      945.30758     -1584.3567      28612.509      30.585716      1.1453411    
     36800   302.66193      978.94083     -114.76977      28612.509      30.585716      1.1453411    
     36900   305.90419      951.13436      16.671397      28612.509      30.585716      1.1453411    
     37000   298.80496      967.29213     -1148.7099      28612.509      30.585716      1.1453411    
     37100   295.35863      932.71804      1050.9019      28612.509      30.585716      1.1453411    
     37200   291.7665       1011.1595     -402.35318      28612.509      30.585716      1.1453411    
     37300   305.20627      1001.4573      501.60103      28612.509      30.585716      1.1453411    
     37400   299.34651      1045.5714     -173.95793      28612.509      30.585716      1.1453411    
     37500   301.87644      967.21168      139.62235      28612.509      30.585716      1.1453411    
     37600   295.90575      962.0758       1256.9439      28612.509      30.585716      1.1453411    
     37700   294.32944      986.45768     -23.051889      28612.509      30.585716      1.1453411    
     37800   306.5399       968.46189     -2075.5604      28612.509      30.585716      1.1453411    
     37900   307.34848      1003.7002     -2154.6594      28612.509      30.585716      1.1453411    
     38000   308.09423      958.12982      155.81406      28612.509      30.585716      1.1453411    
     38100   299.16006      1006.6024      123.37428      28612.509      30.585716      1.1453411    
     38200   297.97864      986.00422     -108.60906      28612.509      30.585716      1.1453411    
     38300   293.9956       1009.0473     -961.69236      28612.509      30.585716      1.1453411    
     38400   300.87968      945.1509      -1311.7712      28612.509      30.585716      1.1453411    
     38500   295.13163      1020.2079      1923.1307      28612.509      30.585716      1.1453411    
     38600   301.84562      993.80115     -243.17592      28612.509      30.585716      1.1453411    
     38700   304.73499      998.07899     -950.03743      28612.509      30.585716      1.1453411    
     38800   301.76752      1000.907      -848.94215      28612.509      30.585716      1.1453411    
     38900   297.18864      952.59872     -319.83219      28612.509      30.585716      1.1453411    
     39000   293.29272      966.57185      117.60325      28612.509      30.585716      1.1453411    
     39100   293.34675      1009.9343     -1875.3831      28612.509      30.585716      1.1453411    
     39200   299.63081      1056.5582     -28.914399      28612.509      30.585716      1.1453411    
     39300   300.54478      1040.6976      10.476421      28612.509      30.585716      1.1453411    
     39400   299.34602      1004.7494     -1174.359       28612.509      30.585716      1.1453411    
     39500   296.3307       998.22002     -241.71244      28612.509      30.585716      1.1453411    
     39600   298.3714       950.38983     -195.17106      28612.509      30.585716      1.1453411    
     39700   303.37651      909.12895     -860.74991      28612.509      30.585716      1.1453411    
     39800   301.70092      980.13073     -1119.7035      28612.509      30.585716      1.1453411    
     39900   308.57467      972.99994     -9.7686098      28612.509      30.585716      1.1453411    
     40000   303.35993      995.44955      460.01275      28612.509      30.585716      1.1453411    
     40100   293.25728      996.15422     -977.81758      28612.509      30.585716      1.1453411    
     40200   298.12157      936.96844     -1346.2599      28612.509      30.585716      1.1453411    
     40300   300.29873      959.47495     -2457.6301      28612.509      30.585716      1.1453411    
     40400   298.06854      1021.0586     -2271.5339      28612.509      30.585716      1.1453411    
     40500   295.79532      1050.4286     -1635.2608      28612.509      30.585716      1.1453411    
     40600   297.89312      1012.9548     -989.85623      28612.509      30.585716      1.1453411    
     40700   296.44969      963.36688     -1012.9497      28612.509      30.585716      1.1453411    
     40800   289.12839      952.01479      795.49631      28612.509      30.585716      1.1453411    
     40900   296.2911       946.20179     -1139.1432      28612.509      30.585716      1.1453411    
     41000   301.2533       978.21833     -255.75725      28612.509      30.585716      1.1453411    
     41100   299.01013      1025.4226      1339.384       28612.509      30.585716      1.1453411    
     41200   302.06583      983.14632      1654.4952      28612.509      30.585716      1.1453411    
     41300   300.66356      905.07277     -826.16209      28612.509      30.585716      1.1453411    
     41400   295.06359      906.70982     -546.39803      28612.509      30.585716      1.1453411    
     41500   294.3179       949.74733     -1315.4225      28612.509      30.585716      1.1453411    
     41600   299.80997      954.2789      -1472.5843      28612.509      30.585716      1.1453411    
     41700   300.04655      961.3016       412.80111      28612.509      30.585716      1.1453411    
     41800   305.90521      887.87142     -192.24653      28612.509      30.585716      1.1453411    
     41900   294.7031       950.502       -1880.7215      28612.509      30.585716      1.1453411    
     42000   290.97982      943.57385     -262.83574      28612.509      30.585716      1.1453411    
     42100   293.80165      952.65373     -1781.2838      28612.509      30.585716      1.1453411    
     42200   300.03117      981.78853     -1944.9921      28612.509      30.585716      1.1453411    
     42300   303.83211      985.02454     -507.28625      28612.509      30.585716      1.1453411    
     42400   300.55908      989.2897      -583.2293       28612.509      30.585716      1.1453411    
     42500   299.1441       921.4044      -1283.5087      28612.509      30.585716      1.1453411    
     42600   287.83935      967.63194     -246.1617       28612.509      30.585716      1.1453411    
     42700   298.36551      927.22106      1480.8496      28612.509      30.585716      1.1453411    
     42800   289.99094      1040.1454     -1001.8749      28612.509      30.585716      1.1453411    
     42900   293.25855      1039.8057     -2746.7712      28612.509      30.585716      1.1453411    
     43000   300.84706      989.78172     -1297.0955      28612.509      30.585716      1.1453411    
     43100   299.95528      961.88615     -4.878211       28612.509      30.585716      1.1453411    
     43200   297.9305       904.65509     -1056.3947      28612.509      30.585716      1.1453411    
     43300   292.80277      932.83257      371.56698      28612.509      30.585716      1.1453411    
     43400   300.00295      983.43848     -348.87833      28612.509      30.585716      1.1453411    
     43500   306.23179      954.55427     -1499.789       28612.509      30.585716      1.1453411    
     43600   295.99206      1010.9096     -832.11655      28612.509      30.585716      1.1453411    
     43700   293.31992      994.31043      536.65541      28612.509      30.585716      1.1453411    
     43800   302.16311      946.01187      1969.4475      28612.509      30.585716      1.1453411    
     43900   303.9046       1026.7717      147.63127      28612.509      30.585716      1.1453411    
     44000   300.61944      1050.7738     -61.852882      28612.509      30.585716      1.1453411    
     44100   303.10866      960.50611      1416.7299      28612.509      30.585716      1.1453411    
     44200   298.58064      986.39263      28.904245      28612.509      30.585716      1.1453411    
     44300   306.32178      913.3619      -1069.1997      28612.509      30.585716      1.1453411    
     44400   296.50909      964.1351      -2039.6621      28612.509      30.585716      1.1453411    
     44500   291.98513      944.34515     -2497.2004      28612.509      30.585716      1.1453411    
     44600   292.04545      955.74556     -2478.8519      28612.509      30.585716      1.1453411    
     44700   301.09196      990.93644     -512.57792      28612.509      30.585716      1.1453411    
     44800   303.05442      992.41572      2.0647731      28612.509      30.585716      1.1453411    
     44900   295.44699      1005.7246     -1486.2869      28612.509      30.585716      1.1453411    
     45000   297.05043      936.55665     -1733.4658      28612.509      30.585716      1.1453411    
     45100   301.20072      892.42266     -789.50156      28612.509      30.585716      1.1453411    
     45200   301.23954      1010.4547     -1452.2512      28612.509      30.585716      1.1453411    
     45300   309.59991      964.99022     -128.38978      28612.509      30.585716      1.1453411    
     45400   302.86216      958.95502      1993.5918      28612.509      30.585716      1.1453411    
     45500   294.83289      986.2307       1139.7006      28612.509      30.585716      1.1453411    
     45600   296.04926      986.09961      2575.1053      28612.509      30.585716      1.1453411    
     45700   304.73967      985.91375      679.73122      28612.509      30.585716      1.1453411    
     45800   308.82914      1018.2937      455.5899       28612.509      30.585716      1.1453411    
     45900   308.57958      975.65876     -1128.2088      28612.509      30.585716      1.1453411    
     46000   300.15531      1002.3602     -1066.2616      28612.509      30.585716      1.1453411    
     46100   299.24828      963.00008     -1594.5805      28612.509      30.585716      1.1453411    
     46200   298.0865       945.25214     -1307.5371      28612.509      30.585716      1.1453411    
     46300   292.03535      1030.58       -169.7091       28612.509      30.585716      1.1453411    
     46400   305.94801      1010.8541     -1305.5546      28612.509      30.585716      1.1453411    
     46500   302.22265      1033.4972     -932.8181       28612.509      30.585716      1.1453411    
     46600   298.10238      1003.4718     -806.68887      28612.509      30.585716      1.1453411    
     46700   297.04013      968.03074      821.69402      28612.509      30.585716      1.1453411    
     46800   296.30131      959.37641      235.10212      28612.509      30.585716      1.1453411    
     46900   297.91851      954.21299      1520.9235      28612.509      30.585716      1.1453411    
     47000   299.41129      974.34209      1624.8503      28612.509      30.585716      1.1453411    
     47100   307.84996      903.61106     -584.06082      28612.509      30.585716      1.1453411    
     47200   299.66267      959.35821     -1259.1944      28612.509      30.585716      1.1453411    
     47300   292.6935       914.04783     -149.0855       28612.509      30.585716      1.1453411    
     47400   291.40643      883.47838     -2782.5928      28612.509      30.585716      1.1453411    
     47500   295.7005       948.90746     -672.86882      28612.509      30.585716      1.1453411    
     47600   303.28139      945.47125      817.3228       28612.509      30.585716      1.1453411    
     47700   306.86474      942.62885     -343.35701      28612.509      30.585716      1.1453411    
     47800   301.75763      978.47904     -77.495021      28612.509      30.585716      1.1453411    
     47900   297.55253      946.76021      505.79524      28612.509      30.585716      1.1453411    
     48000   296.06443      909.77169      539.31767      28612.509      30.585716      1.1453411    
     48100   298.77885      938.70279     -839.08369      28612.509      30.585716      1.1453411    
     48200   306.91541      960.90711     -820.81709      28612.509      30.585716      1.1453411    
     48300   305.40801      964.73889      142.97572      28612.509      30.585716      1.1453411    
     48400   299.29712      968.75509     -1470.661       28612.509      30.585716      1.1453411    
     48500   291.47597      975.17052      115.97505      28612.509      30.585716      1.1453411    
     48600   295.8739       929.29889      1531.8903      28612.509      30.585716      1.1453411    
     48700   299.66068      924.41407     -1247.3504      28612.509      30.585716      1.1453411    
     48800   296.38736      982.38238      1393.9074      28612.509      30.585716      1.1453411    
     48900   304.36857      938.68409      2456.7289      28612.509      30.585716      1.1453411    
     49000   300.70172      1010.7882     -353.05833      28612.509      30.585716      1.1453411    
     49100   304.72533      997.35884     -2531.6368      28612.509      30.585716      1.1453411    
     49200   298.73323      982.75538     -49.817692      28612.509      30.585716      1.1453411    
     49300   296.2582       935.92098      1467.8658      28612.509      30.585716      1.1453411    
     49400   293.06572      974.80316     -488.78063      28612.509      30.585716      1.1453411    
     49500   308.22648      903.6703       292.52851      28612.509      30.585716      1.1453411    
     49600   308.00843      973.66665     -354.42189      28612.509      30.585716      1.1453411    
     49700   304.82117      978.3081      -629.41548      28612.509      30.585716      1.1453411    
     49800   298.22118      1006.9587     -2023.566       28612.509      30.585716      1.1453411    
     49900   299.39387      981.43667      933.87688      28612.509      30.585716      1.1453411    
     50000   300.12084      939.05445      1451.2417      28612.509      30.585716      1.1453411    
     50100   299.6815       895.8197       23.782182      28612.509      30.585716      1.1453411    
     50200   296.54224      921.73258      607.81768      28612.509      30.585716      1.1453411    
     50300   294.21782      1045.8519      205.78837      28612.509      30.585716      1.1453411    
     50400   303.80891      988.28597     -2528.4571      28612.509      30.585716      1.1453411    
     50500   303.38246      970.98372     -90.180165      28612.509      30.585716      1.1453411    
     50600   294.80278      993.64357     -823.1191       28612.509      30.585716      1.1453411    
     50700   293.48597      918.01869      880.47889      28612.509      30.585716      1.1453411    
     50800   294.85526      928.88953     -168.88043      28612.509      30.585716      1.1453411    
     50900   300.61161      993.06046      799.71537      28612.509      30.585716      1.1453411    
     51000   299.22446      1002.0443     -64.013533      28612.509      30.585716      1.1453411    
     51100   301.28795      949.87372     -24.128159      28612.509      30.585716      1.1453411    
     51200   295.80546      996.65396     -717.49662      28612.509      30.585716      1.1453411    
     51300   301.36537      983.86265      696.49019      28612.509      30.585716      1.1453411    
     51400   303.049        1031.4147     -1927.6474      28612.509      30.585716      1.1453411    
     51500   305.08942      1000.1762      92.516551      28612.509      30.585716      1.1453411    
     51600   298.15527      946.20616     -651.64121      28612.509      30.585716      1.1453411    
     51700   303.01591      889.52123     -401.12266      28612.509      30.585716      1.1453411    
     51800   292.85151      1015.3804     -2204.6166      28612.509      30.585716      1.1453411    
     51900   298.59131      1034.335      -489.6161       28612.509      30.585716      1.1453411    
     52000   298.79615      1068.5314     -2888.6521      28612.509      30.585716      1.1453411    
     52100   292.28851      1041.4441     -527.05472      28612.509      30.585716      1.1453411    
     52200   295.98063      940.66563     -3981.7267      28612.509      30.585716      1.1453411    
     52300   298.429        974.01229     -1589.4959      28612.509      30.585716      1.1453411    
     52400   298.56635      1038.667      -1758.4948      28612.509      30.585716      1.1453411    
     52500   299.92086      1049.9502     -1944.591       28612.509      30.585716      1.1453411    
     52600   298.13349      1051.2456     -3197.5492      28612.509      30.585716      1.1453411    
     52700   295.23253      984.3167      -1768.0514      28612.509      30.585716      1.1453411    
     52800   290.92155      971.4021      -289.8337       28612.509      30.585716      1.1453411    
     52900   296.8796       993.57746      252.97486      28612.509      30.585716      1.1453411    
     53000   302.66344      981.77978     -886.8116       28612.509      30.585716      1.1453411    
     53100   302.41686      989.72147      878.26486      28612.509      30.585716      1.1453411    
     53200   296.98833      996.95078     -311.84922      28612.509      30.585716      1.1453411    
     53300   293.58885      928.03397     -611.60546      28612.509      30.585716      1.1453411    
     53400   291.61466      940.12756      860.953        28612.509      30.585716      1.1453411    
     53500   301.81614      899.0059      -537.64943      28612.509      30.585716      1.1453411    
     53600   300.91614      951.68291     -1246.492       28612.509      30.585716      1.1453411    
     53700   305.71391      954.75553     -1042.3089      28612.509      30.585716      1.1453411    
     53800   305.36155      973.68305     -1310.8353      28612.509      30.585716      1.1453411    
     53900   300.70587      950.72893     -1365.5468      28612.509      30.585716      1.1453411    
     54000   294.04746      937.47974      517.91281      28612.509      30.585716      1.1453411    
     54100   294.26595      976.35569      309.32293      28612.509      30.585716      1.1453411    
     54200   298.10058      1013.0959     -697.99881      28612.509      30.585716      1.1453411    
     54300   299.95988      1001.4292      2061.2827      28612.509      30.585716      1.1453411    
     54400   304.01314      944.11651     -653.3762       28612.509      30.585716      1.1453411    
     54500   303.35989      919.6256       1365.3553      28612.509      30.585716      1.1453411    
     54600   295.84113      933.61965      771.50487      28612.509      30.585716      1.1453411    
     54700   287.83003      991.11108     -620.83024      28612.509      30.585716      1.1453411    
     54800   304.52427      939.27954      977.74328      28612.509      30.585716      1.1453411    
     54900   306.00519      974.36         1491.7441      28612.509      30.585716      1.1453411    
     55000   303.59598      976.23597      1465.565       28612.509      30.585716      1.1453411    
     55100   297.44723      963.4453      -1465.3419      28612.509      30.585716      1.1453411    
     55200   292.05718      968.0864      -853.84591      28612.509      30.585716      1.1453411    
     55300   303.83407      912.89649      2440.2149      28612.509      30.585716      1.1453411    
     55400   307.12178      959.01281     -1112.8396      28612.509      30.585716      1.1453411    
     55500   304.20954      977.32851      254.28234      28612.509      30.585716      1.1453411    
     55600   298.99165      978.4647       503.2297       28612.509      30.585716      1.1453411    
     55700   294.80191      956.80303     -586.19641      28612.509      30.585716      1.1453411    
     55800   299.46833      917.24937     -2447.0379      28612.509      30.585716      1.1453411    
     55900   303.56506      973.45168      2109.3989      28612.509      30.585716      1.1453411    
     56000   297.9586       1073.0635      648.05617      28612.509      30.585716      1.1453411    
     56100   296.57334      1047.3698     -413.45923      28612.509      30.585716      1.1453411    
     56200   297.03427      986.55298     -1402.4806      28612.509      30.585716      1.1453411    
     56300   293.49221      1002.6131     -679.39957      28612.509      30.585716      1.1453411    
     56400   301.02041      971.57761      258.84554      28612.509      30.585716      1.1453411    
     56500   304.07708      1043.6644      340.25964      28612.509      30.585716      1.1453411    
     56600   313.537        1007.2887      973.84222      28612.509      30.585716      1.1453411    
     56700   303.40285      1052.5671     -1022.8956      28612.509      30.585716      1.1453411    
     56800   303.13889      1004.2137     -1136.914       28612.509      30.585716      1.1453411    
     56900   292.74708      1028.9347     -492.93762      28612.509      30.585716      1.1453411    
     57000   294.59997      977.5158       683.25312      28612.509      30.585716      1.1453411    
     57100   300.66314      960.35033     -1128.8215      28612.509      30.585716      1.1453411    
     57200   305.83453      1004.5035     -301.31567      28612.509      30.585716      1.1453411    
     57300   306.02586      995.00747     -1704.4034      28612.509      30.585716      1.1453411    
     57400   296.9565       1037.9569     -1715.5269      28612.509      30.585716      1.1453411    
     57500   296.42256      1010.4509     -412.29881      28612.509      30.585716      1.1453411    
     57600   296.00737      973.59861     -2044.5516      28612.509      30.585716      1.1453411    
     57700   295.83001      973.77631     -871.3686       28612.509      30.585716      1.1453411    
     57800   310.92408      945.64853      1034.8677      28612.509      30.585716      1.1453411    
     57900   306.89998      1015.5057      1917.3292      28612.509      30.585716      1.1453411    
     58000   299.38598      1013.0413     -492.59272      28612.509      30.585716      1.1453411    
     58100   299.57339      956.83635     -332.59701      28612.509      30.585716      1.1453411    
     58200   297.20355      957.7888      -87.246303      28612.509      30.585716      1.1453411    
     58300   305.10608      916.08011     -1463.5327      28612.509      30.585716      1.1453411    
     58400   302.91282      1023.3192      681.21676      28612.509      30.585716      1.1453411    
     58500   308.05352      1060.6764      228.58248      28612.509      30.585716      1.1453411    
     58600   300.86868      1084.6155      1396.4767      28612.509      30.585716      1.1453411    
     58700   304.79542      987.85267     -634.80044      28612.509      30.585716      1.1453411    
     58800   297.73197      984.51159     -1538.8889      28612.509      30.585716      1.1453411    
     58900   291.66471      996.87761     -1152.8386      28612.509      30.585716      1.1453411    
     59000   302.29347      926.63549     -552.9686       28612.509      30.585716      1.1453411    
     59100   310.57543      943.73868      97.823351      28612.509      30.585716      1.1453411    
     59200   299.90335      1050.1292     -588.42538      28612.509      30.585716      1.1453411    
     59300   299.42364      1018.243      -868.89598      28612.509      30.585716      1.1453411    
     59400   298.95422      993.3529      -1633.3796      28612.509      30.585716      1.1453411    
     59500   299.11551      963.48742     -651.61857      28612.509      30.585716      1.1453411    
     59600   296.9558       926.52818     -1544.8528      28612.509      30.585716      1.1453411    
     59700   295.48384      870.09485     -628.0193       28612.509      30.585716      1.1453411    
     59800   294.10495      943.55496     -3022.4517      28612.509      30.585716      1.1453411    
     59900   298.48094      984.21886     -3202.546       28612.509      30.585716      1.1453411    
     60000   305.81618      934.75272     -3210.3205      28612.509      30.585716      1.1453411    
     60100   299.68413      987.24045      80.152401      28612.509      30.585716      1.1453411    
     60200   297.16785      988.54097      228.67155      28612.509      30.585716      1.1453411    
     60300   296.73595      938.77388      1344.9085      28612.509      30.585716      1.1453411    
     60400   293.74128      946.11959     -815.47028      28612.509      30.585716      1.1453411    
     60500   296.95364      995.17697     -1888.2435      28612.509      30.585716      1.1453411    
     60600   302.6705       1004.393       1298.2627      28612.509      30.585716      1.1453411    
     60700   299.21601      1011.2067     -162.54707      28612.509      30.585716      1.1453411    
     60800   295.65097      1006.0659     -842.55284      28612.509      30.585716      1.1453411    
     60900   293.19081      1008.1022     -1857.2001      28612.509      30.585716      1.1453411    
     61000   302.22583      949.23853     -2044.9151      28612.509      30.585716      1.1453411    
     61100   302.16655      991.13671     -2729.2859      28612.509      30.585716      1.1453411    
     61200   308.27561      974.5139      -2384.5789      28612.509      30.585716      1.1453411    
     61300   301.9723       998.88735      2.2852137      28612.509      30.585716      1.1453411    
     61400   303.54464      895.42792      765.40135      28612.509      30.585716      1.1453411    
     61500   301.53713      904.74511      19.385759      28612.509      30.585716      1.1453411    
     61600   301.26671      946.7155      -2037.7899      28612.509      30.585716      1.1453411    
     61700   303.43675      950.04428     -3341.9772      28612.509      30.585716      1.1453411    
     61800   302.29089      953.23244     -3518.6537      28612.509      30.585716      1.1453411    
     61900   303.73056      938.88944     -3155.0098      28612.509      30.585716      1.1453411    
     62000   297.70585      995.6285      -1289.3529      28612.509      30.585716      1.1453411    
     62100   295.15274      1015.0578     -1920.2656      28612.509      30.585716      1.1453411    
     62200   302.18495      957.33934     -1079.239       28612.509      30.585716      1.1453411    
     62300   300.57117      966.18991     -1886.8126      28612.509      30.585716      1.1453411    
     62400   303.76257      925.82711     -1338.7813      28612.509      30.585716      1.1453411    
     62500   293.43002      966.36073     -732.48116      28612.509      30.585716      1.1453411    
     62600   294.65455      932.81936      644.20773      28612.509      30.585716      1.1453411    
     62700   302.93186      948.16743     -1839.6569      28612.509      30.585716      1.1453411    
     62800   304.16933      990.03417     -854.9049       28612.509      30.585716      1.1453411    
     62900   297.37984      1038.2164      906.45826      28612.509      30.585716      1.1453411    
     63000   301.20597      962.4348      -1243.7349      28612.509      30.585716      1.1453411    
     63100   292.37554      953.9429      -1390.6023      28612.509      30.585716      1.1453411    
     63200   287.49919      932.65467     -710.45933      28612.509      30.585716      1.1453411    
     63300   296.1227       961.91202      200.28505      28612.509      30.585716      1.1453411    
     63400   305.10953      932.53106      641.07823      28612.509      30.585716      1.1453411    
     63500   303.57829      961.63914      922.99516      28612.509      30.585716      1.1453411    
     63600   299.58867      979.31699      1140.4241      28612.509      30.585716      1.1453411    
     63700   298.31753      962.56811     -2476.746       28612.509      30.585716      1.1453411    
     63800   297.55672      954.96905     -1504.1608      28612.509      30.585716      1.1453411    
     63900   299.41154      965.7689       442.07157      28612.509      30.585716      1.1453411    
     64000   293.86433      1079.408      -1370.2439      28612.509      30.585716      1.1453411    
     64100   307.22565      986.65889     -1713.2024      28612.509      30.585716      1.1453411    
     64200   296.56733      1006.51        205.12131      28612.509      30.585716      1.1453411    
     64300   296.99236      929.51738     -722.94995      28612.509      30.585716      1.1453411    
     64400   296.53519      957.7787      -2422.3708      28612.509      30.585716      1.1453411    
     64500   301.32829      973.21526      634.19436      28612.509      30.585716      1.1453411    
     64600   298.99215      1025.6252      162.32415      28612.509      30.585716      1.1453411    
     64700   302.00016      989.08845      2060.7352      28612.509      30.585716      1.1453411    
     64800   301.34226      978.51256      219.01391      28612.509      30.585716      1.1453411    
     64900   302.81975      952.87583     -2087.8982      28612.509      30.585716      1.1453411    
     65000   301.29287      965.53788      609.54184      28612.509      30.585716      1.1453411    
     65100   297.45235      1025.4057     -469.46178      28612.509      30.585716      1.1453411    
     65200   305.57444      1061.598       48.189139      28612.509      30.585716      1.1453411    
     65300   303.33904      1067.4359     -701.06795      28612.509      30.585716      1.1453411    
     65400   297.35442      1030.8355     -1498.1112      28612.509      30.585716      1.1453411    
     65500   298.89179      969.73277     -480.60029      28612.509      30.585716      1.1453411    
     65600   298.73775      941.62882     -1180.2922      28612.509      30.585716      1.1453411    
     65700   297.51212      966.91516      906.97049      28612.509      30.585716      1.1453411    
     65800   304.06929      1006.2341     -1792.1663      28612.509      30.585716      1.1453411    
     65900   304.56204      1025.7384     -1917.9126      28612.509      30.585716      1.1453411    
     66000   306.75723      939.40635     -609.10945      28612.509      30.585716      1.1453411    
     66100   299.2709       958.15115     -711.68339      28612.509      30.585716      1.1453411    
     66200   298.22318      960.37522     -296.44447      28612.509      30.585716      1.1453411    
     66300   300.77981      930.98648     -1000.9397      28612.509      30.585716      1.1453411    
     66400   301.64965      908.08659     -672.59331      28612.509      30.585716      1.1453411    
     66500   295.1393       981.02664     -1243.197       28612.509      30.585716      1.1453411    
     66600   301.91569      978.62888     -844.95063      28612.509      30.585716      1.1453411    
     66700   307.90524      963.47927      344.59757      28612.509      30.585716      1.1453411    
     66800   302.87644      948.87285     -2017.3623      28612.509      30.585716      1.1453411    
     66900   295.36862      937.79166     -1542.2525      28612.509      30.585716      1.1453411    
     67000   299.83312      922.41022     -1641.7593      28612.509      30.585716      1.1453411    
     67100   304.59367      932.07982     -1909.9724      28612.509      30.585716      1.1453411    
     67200   300.6196       987.42268     -1371.3132      28612.509      30.585716      1.1453411    
     67300   304.89242      941.54506     -1713.3186      28612.509      30.585716      1.1453411    
     67400   299.99336      933.48891     -55.866629      28612.509      30.585716      1.1453411    
     67500   291.19085      962.38343     -1173.3744      28612.509      30.585716      1.1453411    
     67600   300.12306      935.35242     -331.37898      28612.509      30.585716      1.1453411    
     67700   302.58595      993.79108     -1114.3455      28612.509      30.585716      1.1453411    
     67800   302.05015      1014.9995     -2993.2994      28612.509      30.585716      1.1453411    
     67900   295.5779       1035.9411     -1150.8325      28612.509      30.585716      1.1453411    
     68000   292.22394      995.54748     -498.69819      28612.509      30.585716      1.1453411    
     68100   298.76265      910.08886     -1132.8846      28612.509      30.585716      1.1453411    
     68200   295.49652      990.50709     -1078.1845      28612.509      30.585716      1.1453411    
     68300   305.17117      981.45169     -2289.1352      28612.509      30.585716      1.1453411    
     68400   301.51659      988.60146      792.8624       28612.509      30.585716      1.1453411    
     68500   297.5414       959.92574      1161.9112      28612.509      30.585716      1.1453411    
     68600   295.9838       952.04188      543.00786      28612.509      30.585716      1.1453411    
     68700   299.34084      939.00171     -935.50153      28612.509      30.585716      1.1453411    
     68800   307.92345      949.65201      905.05214      28612.509      30.585716      1.1453411    
     68900   298.83755      1052.3293      1857.1275      28612.509      30.585716      1.1453411    
     69000   296.13427      1005.3509     -1507.1924      28612.509      30.585716      1.1453411    
     69100   295.51792      951.0325      -2362.0863      28612.509      30.585716      1.1453411    
     69200   295.95231      953.39221     -2006.828       28612.509      30.585716      1.1453411    
     69300   307.86445      898.7667      -3770.0585      28612.509      30.585716      1.1453411    
     69400   301.27706      982.79116     -768.06275      28612.509      30.585716      1.1453411    
     69500   302.66593      962.77621     -2553.5596      28612.509      30.585716      1.1453411    
     69600   300.16832      964.80706     -103.14577      28612.509      30.585716      1.1453411    
     69700   296.21261      1002.7399     -747.57796      28612.509      30.585716      1.1453411    
     69800   303.74801      934.73105     -3042.0805      28612.509      30.585716      1.1453411    
     69900   300.52596      953.72798     -1510.8165      28612.509      30.585716      1.1453411    
     70000   298.53588      952.15007     -3619.219       28612.509      30.585716      1.1453411    
     70100   295.21407      980.1067      -2243.2713      28612.509      30.585716      1.1453411    
     70200   305.05451      939.51125     -673.4663       28612.509      30.585716      1.1453411    
     70300   309.75165      997.73923     -982.39099      28612.509      30.585716      1.1453411    
     70400   306.39107      985.72181     -242.44188      28612.509      30.585716      1.1453411    
     70500   298.74783      969.23354     -137.56097      28612.509      30.585716      1.1453411    
     70600   296.45411      973.21323      425.67747      28612.509      30.585716      1.1453411    
     70700   302.26901      928.78051     -2844.2582      28612.509      30.585716      1.1453411    
     70800   310.60208      927.35189     -1201.7061      28612.509      30.585716      1.1453411    
     70900   309.19758      1009.8796     -936.51181      28612.509      30.585716      1.1453411    
     71000   305.88187      995.13793     -1373.9899      28612.509      30.585716      1.1453411    
     71100   296.96782      1018.3812     -708.64529      28612.509      30.585716      1.1453411    
     71200   292.90446      1041.8        -1063.0393      28612.509      30.585716      1.1453411    
     71300   294.95976      1022.1521     -15.337405      28612.509      30.585716      1.1453411    
     71400   308.66561      946.59684      469.46373      28612.509      30.585716      1.1453411    
     71500   304.31733      1036.9324     -410.99955      28612.509      30.585716      1.1453411    
     71600   302.81008      1016.4787     -454.2144       28612.509      30.585716      1.1453411    
     71700   299.04005      948.36187     -415.06446      28612.509      30.585716      1.1453411    
     71800   296.1656       968.92018      868.9989       28612.509      30.585716      1.1453411    
     71900   303.14561      953.32644     -371.18488      28612.509      30.585716      1.1453411    
     72000   302.39224      1021.7777      410.20832      28612.509      30.585716      1.1453411    
     72100   308.20698      1025.0402     -258.17849      28612.509      30.585716      1.1453411    
     72200   311.46271      1025.2164      727.88841      28612.509      30.585716      1.1453411    
     72300   299.84827      1025.3002     -257.36871      28612.509      30.585716      1.1453411    
     72400   298.37674      973.08237     -50.339161      28612.509      30.585716      1.1453411    
     72500   293.33159      987.59555      335.05309      28612.509      30.585716      1.1453411    
     72600   296.1599       947.32291     -547.80199      28612.509      30.585716      1.1453411    
     72700   298.96493      979.76353      388.70904      28612.509      30.585716      1.1453411    
     72800   306.37022      993.30173     -1074.7756      28612.509      30.585716      1.1453411    
     72900   306.16702      964.2898       231.97856      28612.509      30.585716      1.1453411    
     73000   298.8705       960.62116     -1254.9655      28612.509      30.585716      1.1453411    
     73100   293.0512       1009.1951     -1177.6252      28612.509      30.585716      1.1453411    
     73200   297.65878      990.70227     -1645.1857      28612.509      30.585716      1.1453411    
     73300   299.06508      1015.4768      978.5648       28612.509      30.585716      1.1453411    
     73400   308.40308      1028.5063     -263.34505      28612.509      30.585716      1.1453411    
     73500   308.41739      1029.4516     -370.87529      28612.509      30.585716      1.1453411    
     73600   306.63368      941.92224     -2190.5948      28612.509      30.585716      1.1453411    
     73700   297.42189      984.07333      255.94475      28612.509      30.585716      1.1453411    
     73800   294.71787      992.45697     -1537.2399      28612.509      30.585716      1.1453411    
     73900   301.43239      943.42159     -1839.3806      28612.509      30.585716      1.1453411    
     74000   301.42507      1008.6467     -447.82662      28612.509      30.585716      1.1453411    
     74100   299.13566      1082.8549     -2065.1671      28612.509      30.585716      1.1453411    
     74200   303.16415      988.7452      -1192.2401      28612.509      30.585716      1.1453411    
     74300   295.91801      953.91945     -802.35621      28612.509      30.585716      1.1453411    
[...]
   1183300   303.25217      914.96272     -983.4465       27529.421      30.194814      1.1904021    
   1183400   301.66935      860.88325     -189.79772      27481.912      30.177434      1.1924601    
   1183500   300.64224      793.84896      1707.5215      27406.883      30.149947      1.1957245    
   1183600   297.44838      832.86059     -1347.064       27434.295      30.159995      1.1945297    
   1183700   297.88683      868.41901      121.4735       27461.78       30.170064      1.1933342    
   1183800   298.29427      936.68959      223.78111      27589.495      30.216762      1.1878101    
   1183900   300.81184      948.41263     -1339.0943      27610.615      30.22447       1.1869016    
   1184000   299.19542      845.95928      21.320162      27409.007      30.150726      1.1956319    
   1184100   295.12606      812.28655      2064.6852      27247.499      30.091388      1.2027189    
   1184200   297.87525      790.85056     -110.64588      27564.475      30.207624      1.1888883    
   1184300   299.11554      850.36324      1615.7779      27495.887      30.182549      1.191854     
   1184400   301.67832      872.90364     -325.11024      27468.779      30.172627      1.1930302    
   1184500   304.85983      840.13672      363.98141      27548.922      30.201942      1.1895595    
   1184600   294.54816      854.98038     -1017.4851      27822.353      30.301534      1.1778688    
   1184700   291.46009      824.64337     -992.11557      27727.443      30.267039      1.1819006    
   1184800   296.54602      844.44331     -1281.9621      27742.872      30.272652      1.1812433    
   1184900   304.86746      823.56817     -307.46421      27668.574      30.245604      1.1844153    
   1185000   302.22328      860.15327      88.16233       27448.458      30.165184      1.1939134    
   1185100   293.69981      908.18152      765.6943       27684.88       30.251544      1.1837177    
   1185200   296.26686      825.15877      1582.4728      27625.982      30.230076      1.1862413    
   1185300   289.98263      800.61175     -1905.7706      27856.164      30.313804      1.1764391    
   1185400   291.34153      840.94953      1760.9556      27642.86       30.236231      1.185517     
   1185500   300.11571      850.73081     -46.615704      27509.706      30.187604      1.1912553    
   1185600   301.74985      846.73904     -1806.6251      27647.881      30.238062      1.1853017    
   1185700   299.5459       848.31008      2333.0981      27625.147      30.229772      1.1862772    
   1185800   296.68747      856.56438     -1712.4387      27579.417      30.213082      1.1882442    
   1185900   299.93443      848.83549     -2014.7771      27611.628      30.22484       1.186858     
   1186000   304.22833      873.36443      399.11074      27730.159      30.268028      1.1817848    
   1186100   305.31984      889.19344      953.10328      27697.772      30.256239      1.1831667    
   1186200   302.39355      850.77587     -763.51969      27807.098      30.295995      1.178515     
   1186300   298.41958      799.5897       1012.3043      27514.631      30.189406      1.1910421    
   1186400   292.23461      853.52796      532.5003       27446.877      30.164605      1.1939822    
   1186500   300.5856       841.13664      101.6776       27495.204      30.182299      1.1918836    
   1186600   302.18854      859.90027     -149.11712      27625.218      30.229798      1.1862741    
   1186700   300.96757      838.27951     -554.28932      27241.845      30.089306      1.2029685    
   1186800   299.9936       799.71454      1388.127       27272.778      30.100691      1.2016041    
   1186900   298.05772      822.21024     -841.58976      27496.474      30.182764      1.1918285    
   1187000   295.06538      923.67696      942.35804      27529.457      30.194827      1.1904006    
   1187100   307.68934      886.11243      524.11399      27280.538      30.103545      1.2012623    
   1187200   306.4803       827.32902     -735.69841      27548.067      30.201629      1.1895964    
   1187300   298.4693       834.12953      135.16812      27621.613      30.228483      1.186429     
   1187400   292.22938      888.09384      81.221579      27703.957      30.258491      1.1829026    
   1187500   301.81294      857.0991      -816.55274      27532.339      30.195881      1.190276     
   1187600   303.13139      911.21218     -982.98963      27620.375      30.228031      1.1864822    
   1187700   312.1885       901.85762      202.71998      27648.354      30.238234      1.1852815    
   1187800   307.2105       921.03411      1453.2351      27376.312      30.138732      1.1970598    
   1187900   306.10827      810.02279      1233.5848      27218.241      30.080613      1.2040118    
   1188000   300.81162      803.33648     -328.02376      27474.478      30.174713      1.1927827    
   1188100   295.91266      831.77392     -1797.2573      27622.242      30.228712      1.1864019    
   1188200   300.91879      805.33023      1093.9232      27335.067      30.123589      1.198866     
   1188300   304.86667      824.09609      1237.9245      27392.797      30.144781      1.1963394    
   1188400   306.22599      852.54324     -2079.942       27681.621      30.250357      1.1838571    
   1188500   300.88702      902.76105     -1061.4082      27515.424      30.189696      1.1910077    
   1188600   304.41746      818.47684     -200.03497      27414.226      30.152639      1.1954042    
   1188700   302.4951       762.31011      389.11948      27311.467      30.114917      1.1999019    
   1188800   296.63194      799.5406      -698.78071      27544.197      30.200215      1.1897636    
   1188900   303.8705       816.7321      -177.53299      27554.858      30.204111      1.1893033    
   1189000   308.33733      841.3857      -930.61732      27425.52       30.156779      1.194912     
   1189100   307.29019      818.42191      669.15483      27273.407      30.100922      1.2015764    
   1189200   299.62073      826.05917     -433.71566      27198.687      30.073408      1.2048774    
   1189300   295.75385      842.06279      137.48699      27369.557      30.136253      1.1973552    
   1189400   301.97377      838.01247      499.18501      27357.969      30.132         1.1978624    
   1189500   304.98863      921.48318     -2984.7359      27514.735      30.189444      1.1910375    
   1189600   306.54557      885.01522     -238.61684      27408.044      30.150372      1.1956739    
   1189700   303.84008      836.17214      908.62288      27270.002      30.099669      1.2017264    
   1189800   301.60515      798.92347     -760.61294      27236.119      30.087198      1.2032214    
   1189900   291.89869      868.2426       167.17272      27147.246      30.054437      1.2071605    
   1190000   296.22444      839.41868      2058.0819      27131.289      30.048547      1.2078705    
   1190100   304.19743      845.15538      1466.5423      27374.163      30.137944      1.1971538    
   1190200   306.53405      867.42354     -1457.8734      27741.439      30.272131      1.1813043    
   1190300   299.14525      891.10149      630.43455      27296.65       30.10947       1.2005533    
   1190400   298.02805      797.27679      334.63574      27334.509      30.123384      1.1988905    
   1190500   300.11154      767.50433      662.09018      27287.381      30.106062      1.200961     
   1190600   295.96149      841.83139     -3472.3054      27392.245      30.144578      1.1963635    
   1190700   302.7046       834.00147     -161.675        27430.721      30.158685      1.1946854    
   1190800   300.91628      866.60566      2228.2586      27315.346      30.116343      1.1997315    
   1190900   297.81915      871.93214     -306.42285      27363.137      30.133897      1.1976361    
   1191000   297.85359      863.6256      -1132.6014      27351.299      30.129551      1.1981545    
   1191100   298.42463      877.96995      1429.6461      27400.573      30.147633      1.1959999    
   1191200   302.49258      869.30289     -1548.6701      27637.382      30.234234      1.185752     
   1191300   300.67688      957.90751     -335.30323      27310.096      30.114414      1.1999622    
   1191400   311.00715      878.77676      1712.7619      27448.392      30.16516       1.1939163    
   1191500   295.6742       913.76621      695.10808      27522.51       30.192287      1.1907011    
   1191600   300.95246      823.45069     -3.9820926      27512.647      30.18868       1.1911279    
   1191700   301.57379      820.15994     -741.6886       27537.352      30.197713      1.1900593    
   1191800   298.77789      867.74489      796.22339      27246.633      30.091069      1.2027571    
   1191900   311.60984      821.35079      154.36849      27379.56       30.139924      1.1969178    
   1192000   309.60734      873.61189      707.99394      27352.405      30.129957      1.198106     
   1192100   300.79944      844.45509     -273.34143      27251.092      30.09271       1.2025603    
   1192200   297.97569      822.71465      495.00968      27639.994      30.235186      1.18564      
   1192300   299.55908      825.5307       1376.5765      27575.218      30.211548      1.1884251    
   1192400   307.22847      807.06574     -391.15165      27558.429      30.205416      1.1891491    
   1192500   301.68321      909.80871     -496.67888      27493.956      30.181842      1.1919377    
   1192600   302.58203      925.03635     -2869.4392      27519.186      30.191072      1.1908449    
   1192700   299.54444      859.99025     -981.96326      27505.428      30.186039      1.1914405    
   1192800   301.1412       791.06078      1073.2314      27534.16       30.196547      1.1901973    
   1192900   297.42871      861.26386      496.38132      27734.728      30.26969       1.1815902    
   1193000   302.34959      891.1161      -1466.1886      27770.06       30.282538      1.1800868    
   1193100   301.731        898.74518     -249.10705      27448.119      30.16506       1.1939281    
   1193200   296.02572      896.00739     -253.14457      27696.151      30.255649      1.183236     
   1193300   302.20031      814.32893      1642.1493      27654.628      30.240521      1.1850126    
   1193400   299.19702      857.93432      483.79061      27640.932      30.235528      1.1855998    
   1193500   299.35221      873.40204     -1832.7684      27467.273      30.172075      1.1930956    
   1193600   301.66111      874.8981      -687.91561      27642.603      30.236138      1.1855281    
   1193700   299.52096      893.37204      2372.6324      27630.46       30.23171       1.1860491    
   1193800   295.13344      886.99364      3709.7315      27455.049      30.167599      1.1936268    
   1193900   295.59562      828.40536     -987.45783      27491.583      30.180974      1.1920406    
   1194000   298.01485      829.02872      632.95362      27427.834      30.157627      1.1948112    
   1194100   302.70243      881.90537     -436.18881      27724.456      30.265952      1.182028     
   1194200   303.82461      902.09535     -253.55153      27869.293      30.318566      1.1758849    
   1194300   303.73532      872.66511      309.24406      27559.436      30.205784      1.1891057    
   1194400   299.08443      864.11264     -2540.3163      27725.817      30.266448      1.1819699    
   1194500   296.03101      875.19871      615.67945      27558.13       30.205307      1.189162     
   1194600   300.75743      849.76041      645.35422      27599.402      30.220378      1.1873838    
   1194700   303.56676      866.05415     -934.38487      27751.273      30.275708      1.1808857    
   1194800   303.31387      888.33932     -49.934476      27752.51       30.276157      1.1808331    
   1194900   300.1317       865.74585      868.77148      27679.325      30.249521      1.1839553    
   1195000   298.93059      792.80316      2339.0314      27423.624      30.156084      1.1949946    
   1195100   298.69333      805.6386      -1139.8227      27630.524      30.231733      1.1860463    
   1195200   300.34658      858.68774      879.1908       27568.818      30.209211      1.188701     
   1195300   299.88447      931.59695     -387.24904      27462.788      30.170433      1.1932904    
   1195400   303.66552      967.92401     -202.80236      27535.428      30.19701       1.1901425    
   1195500   308.99217      930.67074     -2259.527       27641.226      30.235636      1.1855871    
   1195600   297.55323      916.89007     -567.48349      27814.135      30.29855       1.1782168    
   1195700   298.99808      841.19605      1162.8608      27586.197      30.215557      1.1879522    
   1195800   297.33972      829.30721      386.29707      27445.738      30.164188      1.1940317    
   1195900   299.27473      819.106       -42.694286      27622.251      30.228715      1.1864016    
   1196000   306.52419      835.41508     -436.98845      27387.633      30.142886      1.1965649    
   1196100   304.25944      895.62997     -184.47992      27494.937      30.182201      1.1918952    
   1196200   297.5301       888.41028      1011.8058      27687.426      30.252472      1.1836088    
   1196300   299.66302      799.85701     -1497.2789      27760.223      30.278962      1.180505     
   1196400   299.43322      811.528        271.39228      27767.144      30.281478      1.1802108    
   1196500   303.715        823.47065      442.37829      27630.546      30.231741      1.1860454    
   1196600   303.22618      859.91986      579.03417      27703.449      30.258306      1.1829243    
   1196700   300.6433       861.73033      105.65307      27422.032      30.155501      1.1950639    
   1196800   290.80566      848.56396     -1257.1042      27437.993      30.16135       1.1943688    
   1196900   297.38681      774.01487      205.63019      27475.958      30.175255      1.1927184    
   1197000   297.31609      838.61337      2550.1496      27393.338      30.144979      1.1963158    
   1197100   296.3458       880.77476      149.7573       27577.385      30.21234       1.1883317    
   1197200   298.62076      874.34553     -920.04547      27767.654      30.281663      1.1801891    
   1197300   301.80011      844.78659      652.57249      27668.953      30.245742      1.184399     
   1197400   293.59228      891.42873      19.738666      27552.923      30.203404      1.1893868    
   1197500   292.55426      833.0853       236.80534      27907.125      30.332278      1.1742909    
   1197600   294.45842      730.52248      134.69127      27631.502      30.232089      1.1860044    
   1197700   294.34502      809.60949     -219.66516      27731.249      30.268424      1.1817384    
   1197800   294.75278      866.87697      1485.3151      27631.29       30.232012      1.1860135    
   1197900   304.86786      824.06867      1188.6107      27765.673      30.280944      1.1802733    
   1198000   303.88079      866.1612      -1479.4172      27730.094      30.268004      1.1817876    
   1198100   302.21191      892.67344      261.81297      27723.416      30.265574      1.1820723    
   1198200   298.19547      883.69521      1543.5246      27692.122      30.254182      1.1834081    
   1198300   290.74051      867.72321     -274.83094      27495.888      30.182549      1.1918539    
   1198400   294.40899      824.10341     -2195.4781      27536.679      30.197467      1.1900884    
   1198500   302.18915      828.76916     -1733.3469      27740.801      30.271899      1.1813315    
   1198600   303.43657      872.48346      103.85529      27828.747      30.303855      1.1775982    
   1198700   299.26431      890.77636      96.624851      27662.243      30.243297      1.1846864    
   1198800   296.89081      881.81441     -193.84567      27590.882      30.217268      1.1877504    
   1198900   300.12851      813.08856      421.78267      27657.581      30.241598      1.1848861    
   1199000   290.01043      839.6284       2178.4024      27847.639      30.310711      1.1767993    
   1199100   291.65085      797.93325      646.08926      27454.199      30.167287      1.1936638    
   1199200   294.86666      878.82272     -290.3099       27282.836      30.10439       1.2011611    
   1199300   301.22926      869.25946     -3134.6575      27460.454      30.169578      1.1933919    
   1199400   299.3002       900.68603      1066.0324      27561.145      30.206408      1.1890319    
   1199500   301.72276      879.17963     -308.04467      27690.599      30.253627      1.1834732    
   1199600   296.97728      878.07399     -1647.9543      27369.458      30.136217      1.1973595    
   1199700   295.68266      825.22085      370.03743      27550.697      30.202591      1.1894828    
   1199800   298.45226      802.92852      1471.5791      27430.89       30.158747      1.194678     
   1199900   304.4719       856.52506      459.07921      27238.467      30.088063      1.2031177    
   1200000   307.86454      828.00945      806.61572      27340.702      30.125659      1.1986189    
   1200100   301.56423      822.42662     -787.68782      27521.464      30.191905      1.1907463    
   1200200   298.86705      821.04932     -2124.3775      27717.89       30.263563      1.1823079    
   1200300   304.50534      797.19425      2223.7472      27448.764      30.165296      1.1939001    
   1200400   297.97226      928.43449     -209.75664      27688.002      30.252681      1.1835842    
   1200500   304.03532      973.83683     -330.69399      27699.439      30.256846      1.1830955    
   1200600   300.45655      951.70536      91.442295      27745.699      30.273681      1.181123     
   1200700   301.31215      880.88133      1049.3123      27346.017      30.127611      1.1983859    
   1200800   303.01431      831.48909     -14.333259      27454.981      30.167574      1.1936298    
   1200900   303.28768      817.51722     -382.71913      27426.731      30.157223      1.1948592    
   1201000   295.28308      879.08556      483.06051      27274.007      30.101143      1.20155      
   1201100   296.87817      856.57927      880.85657      27358.476      30.132185      1.1978402    
   1201200   299.89018      849.85152      756.54146      27412.309      30.151936      1.1954878    
   1201254   301.48601      857.14686      2136.1808      27462.316      30.17026       1.1933109    
Loop time of 6746.61 on 4 procs for 1000000 steps with 3092 atoms

Performance: 12.806 ns/day, 1.874 hours/ns, 148.223 timesteps/s
310.8% CPU use with 1 MPI tasks x 4 OpenMP threads

MPI task timing breakdown:
Section |  min time  |  avg time  |  max time  |%varavg| %total
---------------------------------------------------------------
Pair    | 4682.3     | 4682.3     | 4682.3     |   0.0 | 69.40
Bond    | 464.99     | 464.99     | 464.99     |   0.0 |  6.89
Neigh   | 724.62     | 724.62     | 724.62     |   0.0 | 10.74
Comm    | 126.59     | 126.59     | 126.59     |   0.0 |  1.88
Output  | 3.4393     | 3.4393     | 3.4393     |   0.0 |  0.05
Modify  | 730.74     | 730.74     | 730.74     |   0.0 | 10.83
Other   |            | 13.9       |            |       |  0.21

Nlocal:           3092 ave        3092 max        3092 min
Histogram: 1 0 0 0 0 0 0 0 0 0
Nghost:          14852 ave       14852 max       14852 min
Histogram: 1 0 0 0 0 0 0 0 0 0
Neighs:    1.23532e+06 ave 1.23532e+06 max 1.23532e+06 min
Histogram: 1 0 0 0 0 0 0 0 0 0

Total # of neighbors = 1235324
Ave neighs/atom = 399.52264
Ave special neighs/atom = 11.730918
Neighbor list builds = 49121
Dangerous builds = 0
unfix			1
#final
write_data		PVA4_O2_GA_partial_linked_equilibrated.data
System init for write_data ...
Generated 171 of 171 mixed pair_coeff terms from geometric mixing rule
Last active /omp style is angle_style harmonic/omp

#parameter
neighbor		2.0 bin
Total wall time: 2:14:09
